
                                 *****************
                                 * O   R   C   A *
                                 *****************

           --- An Ab Initio, DFT and Semiempirical electronic structure package ---

                  #######################################################
                  #                        -***-                        #
                  #  Department of molecular theory and spectroscopy    #
                  #              Directorship: Frank Neese              #
                  # Max Planck Institute for Chemical Energy Conversion #
                  #                  D-45470 Muelheim/Ruhr              #
                  #                       Germany                       #
                  #                                                     #
                  #                  All rights reserved                #
                  #                        -***-                        #
                  #######################################################


                         Program Version 4.0.1.2 - RELEASE -


 With contributions from (in alphabetic order):
   Daniel Aravena         : Magnetic Properties
   Michael Atanasov       : Ab Initio Ligand Field Theory
   Ute Becker             : Parallelization
   Martin Brehm           : Molecular dynamics
   Dmytro Bykov           : SCF Hessian
   Vijay G. Chilkuri      : MRCI spin determinant printing
   Dipayan Datta          : RHF DLPNO-CCSD density
   Achintya Kumar Dutta   : EOM-CC, STEOM-CC
   Dmitry Ganyushin       : Spin-Orbit,Spin-Spin,Magnetic field MRCI
   Yang Guo               : DLPNO-NEVPT2, CIM, IAO-localization
   Andreas Hansen         : Spin unrestricted coupled pair/coupled cluster methods
   Lee Huntington         : MR-EOM, pCC
   Robert Izsak           : Overlap fitted RIJCOSX, COSX-SCS-MP3, EOM
   Christian Kollmar      : KDIIS, OOCD, Brueckner-CCSD(T), CCSD density
   Simone Kossmann        : Meta GGA functionals, TD-DFT gradient, OOMP2, MP2 Hessian
   Martin Krupicka        : AUTO-CI
   Dagmar Lenk            : GEPOL surface
   Dimitrios Liakos       : Extrapolation schemes; parallel MDCI
   Dimitrios Manganas     : ROCIS; embedding schemes
   Dimitrios Pantazis     : SARC Basis sets
   Taras Petrenko         : DFT Hessian,TD-DFT gradient, ASA, ECA, R-Raman, ABS, FL, XAS/XES, NRVS
   Peter Pinski           : DLPNO-MP2
   Christoph Reimann      : Effective Core Potentials
   Marius Retegan         : Local ZFS, SOC
   Christoph Riplinger    : Optimizer, TS searches, QM/MM, DLPNO-CCSD(T), (RO)-DLPNO pert. Triples
   Tobias Risthaus        : Range-separated hybrids, TD-DFT gradient, RPA, STAB
   Michael Roemelt        : Restricted open shell CIS
   Masaaki Saitow         : Open-shell DLPNO
   Barbara Sandhoefer     : DKH picture change effects
   Kantharuban Sivalingam : CASSCF convergence, NEVPT2, FIC-MRCI
   Georgi Stoychev        : AutoAux
   Boris Wezisla          : Elementary symmetry handling
   Frank Wennmohs         : Technical directorship


 We gratefully acknowledge several colleagues who have allowed us to
 interface, adapt or use parts of their codes:
   Stefan Grimme, W. Hujo, H. Kruse,             : VdW corrections, initial TS optimization,
                  C. Bannwarth                     DFT functionals, gCP, sTDA/sTD-DF
   Ed Valeev                                     : LibInt (2-el integral package), F12 methods
   Garnet Chan, S. Sharma, J. Yang, R. Olivares  : DMRG
   Ulf Ekstrom                                   : XCFun DFT Library
   Mihaly Kallay                                 : mrcc  (arbitrary order and MRCC methods)
   Andreas Klamt, Michael Diedenhofen            : otool_cosmo (COSMO solvation model)
   Jiri Pittner, Ondrej Demel                    : Mk-CCSD
   Frank Weinhold                                : gennbo (NPA and NBO analysis)
   Christopher J. Cramer and Donald G. Truhlar   : smd solvation model


 Your calculation uses the libint2 library for the computation of 2-el integrals
 For citations please refer to: http://libint.valeyev.net

 This ORCA versions uses:
   CBLAS   interface :  Fast vector & matrix operations
   LAPACKE interface :  Fast linear algebra routines
   SCALAPACK package :  Parallel linear algebra routines




*****************************************
The coordinations will be read from file: r01-endo-3r-ts-copt.xyz
*****************************************


Your calculation utilizes the basis: def2-SVP
   F. Weigend and R. Ahlrichs, Phys. Chem. Chem. Phys. 7, 3297 (2005).

Your calculation utilizes the auxiliary basis: def2/J
   F. Weigend, Phys. Chem. Chem. Phys. 8, 1057 (2006).

================================================================================
                                        WARNINGS
                       Please study these warnings very carefully!
================================================================================

Warning: TCutStore was < 0. Adjusted to Thresh (uncritical)

WARNING: For RIJCOSX frequencies GRIDX4 or larger grids are recommended

WARNING: The environment variable RSH_COMMAND is not set!
  ===> : All Displacements for the Numerical Hessian calculation
         will be started on localhost

INFO   : the flag for use of LIBINT has been found!

================================================================================
                                       INPUT FILE
================================================================================
NAME = r01-endo-3r-ts-opthess.inp
|  1> #needfile r01-endo-3r-ts-copt.xyz
|  2> #needfile r01-endo-3r-ts-copt.gbw
|  3> #needfile r01-endo-3r-ts-copt.hess
|  4> ! X3LYP Def2-SVP RIJCOSX VeryTightSCF SlowConv Grid5 FinalGrid6
|  5> ! OptTS NumFreq xyzfile  MORead
|  6> 
|  7> %moinp "r01-endo-3r-ts-copt.gbw"
|  8> 
|  9> %pal nprocs 4 end
| 10> 
| 11> %geom
| 12>  inHess Read
| 13>  InHessName "r01-endo-3r-ts-copt.hess"
| 14>  NumHess true
| 15> end
| 16> 
| 17> %output
| 18>   print[p_mos] 1
| 19>   print[p_Basis] 2
| 20>  end
| 21> 
| 22> *xyzfile 1 1 r01-endo-3r-ts-copt.xyz
| 23> 
| 24> 
| 25>                          ****END OF INPUT****
================================================================================

                       *****************************
                       * Geometry Optimization Run *
                       *****************************

Geometry optimization settings:
Update method            Update   .... Bofill
Choice of coordinates    CoordSys .... Redundant Internals
Initial Hessian          InHess   .... Read

Convergence Tolerances:
Energy Change            TolE     ....  5.0000e-06 Eh
Max. Gradient            TolMAXG  ....  3.0000e-04 Eh/bohr
RMS Gradient             TolRMSG  ....  1.0000e-04 Eh/bohr
Max. Displacement        TolMAXD  ....  4.0000e-03 bohr
RMS Displacement         TolRMSD  ....  2.0000e-03 bohr

------------------------------------------------------------------------------
                        ORCA OPTIMIZATION COORDINATE SETUP
------------------------------------------------------------------------------

The optimization will be done in new redundant internal coordinates
Making redundant internal coordinates   ...  (new redundants) done
Following TS mode number                ...     0
Evaluating the initial hessian          ... (Reading Exact Hessian)...  
InHessName: r01-endo-3r-ts-copt.hess	The file <r01-endo-3r-ts-copt.hess> is opened as a .hess file
done
done
Diagonalizing the Hessian               .... done
Dimension of the hessian                .... 138
Lowest eigenvalues of the non projected Hessian:
 -0.007170023 -0.000000000 -0.000000000 -0.000000000 -0.000000000
done
Evaluating the coordinates              ...  done
Calculating the B-matrix                .... done
Calculating the G-matrix                .... done
Diagonalizing the G-matrix              .... done
Small eigenvalue found = 1.711e-02
Small eigenvalue found = 1.937e-02
Small eigenvalue found = 2.764e-02
The first mode is                       ....   66
The number of degrees of freedom        ....   72

    -----------------------------------------------------------------
                    Redundant Internal Coordinates


    -----------------------------------------------------------------
         Definition                    Initial Value    d2E/dq (diagonal element)
    -----------------------------------------------------------------
      1. B(N   1,C   0)                  1.3420         0.501043   
      2. B(H   2,N   1)                  1.0228         0.438468   
      3. B(H   3,C   0)                  1.0937         0.292352   
      4. B(C   4,C   0)                  1.5150         0.291257   
      5. B(C   5,N   1)                  1.4597         0.321110   
      6. B(C   6,C   0)                  2.0320         0.033206   
      7. B(C   6,H   3)                  2.3827         0.025304   
      8. B(C   7,C   6)                  1.5175         0.179365   
      9. B(C   8,C   7)                  1.4872         0.264121   
     10. B(C   9,C   8)                  1.3784         0.395057   
     11. B(C  10,C   9)                  1.4169         0.341089   
     12. B(C  10,C   6)                  1.4099         0.346337   
     13. B(H  11,C   0)                  2.4730         0.023647   
     14. B(H  11,C   6)                  1.0930         0.277677   
     15. B(H  11,H   3)                  2.4581         0.008443   
     16. B(H  12,C   8)                  1.0925         0.364219   
     17. B(H  13,C   7)                  1.1096         0.322616   
     18. B(H  14,H   3)                  2.6247         0.016662   
     19. B(H  14,C   7)                  1.0993         0.330499   
     20. B(H  15,C   9)                  1.0908         0.366946   
     21. B(H  16,C  10)                  1.0919         0.365016   
     22. B(H  17,C   5)                  1.0980         0.347443   
     23. B(H  18,C   5)                  1.1028         0.335433   
     24. B(H  19,H  14)                  2.2797         0.010137   
     25. B(H  19,C   5)                  1.0987         0.342487   
     26. B(O  20,C   4)                  1.3204         0.481639   
     27. B(O  21,C   4)                  1.2061         0.873683   
     28. B(C  22,O  20)                  1.4455         0.305527   
     29. B(H  23,C  22)                  1.0953         0.355621   
     30. B(H  24,C  22)                  1.0991         0.345352   
     31. B(H  25,C  22)                  1.0980         0.347552   
     32. A(H   3,C   0,C   6)           94.5388         0.009591   
     33. A(C   4,C   0,C   6)          101.3021         0.050899   
     34. A(N   1,C   0,H   3)          116.8009         0.023267   
     35. A(N   1,C   0,C   6)          109.5176         0.044700   
     36. A(H   3,C   0,C   4)          116.2369         0.019374   
     37. A(N   1,C   0,C   4)          114.7222         0.046337   
     38. A(C   0,N   1,C   5)          125.3935         0.112055   
     39. A(C   0,N   1,H   2)          113.9722         0.091901   
     40. A(H   2,N   1,C   5)          117.1844         0.079664   
     41. A(O  20,C   4,O  21)          127.0091         0.201490   
     42. A(C   0,C   4,O  20)          111.3360         0.167817   
     43. A(C   0,C   4,O  21)          121.6542         0.172764   
     44. A(H  18,C   5,H  19)          108.4359         0.054545   
     45. A(N   1,C   5,H  19)          110.3565         0.112355   
     46. A(N   1,C   5,H  18)          110.5556         0.126603   
     47. A(N   1,C   5,H  17)          110.0673         0.125964   
     48. A(H  17,C   5,H  18)          108.5353         0.058448   
     49. A(H  17,C   5,H  19)          108.8371         0.055809   
     50. A(C   0,C   6,H  11)          100.2737         0.010093   
     51. A(C  10,C   6,H  11)          122.0810         0.019660   
     52. A(C   7,C   6,H  11)          122.6508         0.020680   
     53. A(C   7,C   6,C  10)          106.0376         0.038712   
     54. A(C   0,C   6,C  10)          101.2545         0.024548   
     55. A(C   0,C   6,C   7)           98.8497         0.015317   
     56. A(C   6,C   7,C   8)          102.2347         0.064762   
     57. A(H  13,C   7,H  14)          105.3164         0.016719   
     58. A(C   8,C   7,H  14)          115.5884         0.034745   
     59. A(C   6,C   7,H  14)          117.9116         0.029046   
     60. A(C   8,C   7,H  13)          107.7958         0.020443   
     61. A(C   6,C   7,H  13)          107.4899         0.027326   
     62. A(C   9,C   8,H  12)          125.6488         0.073234   
     63. A(C   7,C   8,H  12)          124.2339         0.072058   
     64. A(C   7,C   8,C   9)          109.8893         0.081838   
     65. A(C  10,C   9,H  15)          125.4887         0.073479   
     66. A(C   8,C   9,H  15)          126.0619         0.074181   
     67. A(C   8,C   9,C  10)          108.4479         0.079144   
     68. A(C   9,C  10,H  16)          124.4812         0.071382   
     69. A(C   6,C  10,H  16)          125.3519         0.070422   
     70. A(C   6,C  10,C   9)          110.0117         0.065846   
     71. A(C   4,O  20,C  22)          117.2851         0.259449   
     72. A(H  24,C  22,H  25)          109.2917         0.068751   
     73. A(H  23,C  22,H  25)          111.1614         0.067026   
     74. A(O  20,C  22,H  25)          110.3344         0.143086   
     75. A(H  23,C  22,H  24)          110.5877         0.068055   
     76. A(O  20,C  22,H  24)          109.4866         0.143581   
     77. A(O  20,C  22,H  23)          105.9311         0.143637   
     78. D(C   5,N   1,C   0,H   3)     -0.7318         0.011550   
     79. D(H   2,N   1,C   0,C   4)    -17.9859         0.015676   
     80. D(C   5,N   1,C   0,C   6)   -106.5821         0.013461   
     81. D(H   2,N   1,C   0,C   6)     95.1001         0.012391   
     82. D(C   5,N   1,C   0,C   4)    140.3320         0.017522   
     83. D(H   2,N   1,C   0,H   3)   -159.0497         0.011306   
     84. D(O  20,C   4,C   0,N   1)   -158.0538         0.015830   
     85. D(O  21,C   4,C   0,H   3)    163.5149         0.013026   
     86. D(O  20,C   4,C   0,H   3)    -16.7635         0.011389   
     87. D(O  20,C   4,C   0,C   6)     84.1000         0.014355   
     88. D(O  21,C   4,C   0,C   6)    -95.6215         0.015559   
     89. D(O  21,C   4,C   0,N   1)     22.2247         0.017436   
     90. D(H  18,C   5,N   1,C   0)    -87.6972         0.014606   
     91. D(H  17,C   5,N   1,C   0)    152.4065         0.014127   
     92. D(H  17,C   5,N   1,H   2)    -49.8968         0.013639   
     93. D(H  19,C   5,N   1,C   0)     32.2618         0.012852   
     94. D(H  19,C   5,N   1,H   2)   -170.0415         0.014269   
     95. D(H  18,C   5,N   1,H   2)     69.9995         0.015122   
     96. D(H  11,C   6,C   0,H   3)     45.1015         0.010471   
     97. D(H  11,C   6,C   0,N   1)    165.6338         0.016984   
     98. D(C  10,C   6,C   0,C   4)     53.0936         0.021939   
     99. D(H  11,C   6,C   0,C   4)    -72.8101         0.013717   
    100. D(C  10,C   6,C   0,H   3)    171.0052         0.020314   
    101. D(C  10,C   6,C   0,N   1)    -68.4625         0.025755   
    102. D(C   7,C   6,C   0,H   3)    -80.5699         0.016938   
    103. D(C   7,C   6,C   0,N   1)     39.9624         0.023857   
    104. D(C   7,C   6,C   0,C   4)    161.5185         0.021123   
    105. D(H  13,C   7,C   6,C  10)    -95.1882         0.013789   
    106. D(C   8,C   7,C   6,C   0)    -86.3402         0.017849   
    107. D(C   8,C   7,C   6,H  11)    165.3507         0.009046   
    108. D(C   8,C   7,C   6,C  10)     18.1535         0.010038   
    109. D(H  14,C   7,C   6,C   0)     41.6108         0.015296   
    110. D(H  14,C   7,C   6,H  11)    -66.6982         0.008898   
    111. D(H  14,C   7,C   6,C  10)    146.1045         0.013903   
    112. D(H  13,C   7,C   6,C   0)    160.3180         0.014597   
    113. D(H  13,C   7,C   6,H  11)     52.0090         0.009877   
    114. D(H  12,C   8,C   7,H  14)     40.2994         0.013303   
    115. D(H  12,C   8,C   7,H  13)    -77.1718         0.013092   
    116. D(H  12,C   8,C   7,C   6)    169.7131         0.008238   
    117. D(C   9,C   8,C   7,H  14)   -144.9250         0.016107   
    118. D(C   9,C   8,C   7,H  13)     97.6038         0.016811   
    119. D(C   9,C   8,C   7,C   6)    -15.5113         0.010105   
    120. D(H  15,C   9,C   8,H  12)      1.2864         0.008410   
    121. D(H  15,C   9,C   8,C   7)   -173.3980         0.008358   
    122. D(C  10,C   9,C   8,H  12)   -178.2828         0.009110   
    123. D(C  10,C   9,C   8,C   7)      7.0328         0.010224   
    124. D(H  16,C  10,C   9,H  15)      1.5511         0.008222   
    125. D(C   6,C  10,C   9,H  15)   -174.1214         0.008176   
    126. D(C   6,C  10,C   9,C   8)      5.4509         0.009134   
    127. D(H  16,C  10,C   6,C   0)    -88.0762         0.008971   
    128. D(H  16,C  10,C   6,H  11)     21.7615         0.007595   
    129. D(H  16,C  10,C   6,C   7)    169.1905         0.007720   
    130. D(C   9,C  10,C   6,C   0)     87.5501         0.013235   
    131. D(H  16,C  10,C   9,C   8)   -178.8766         0.006796   
    132. D(C   9,C  10,C   6,H  11)   -162.6122         0.010221   
    133. D(C   9,C  10,C   6,C   7)    -15.1832         0.009955   
    134. D(C  22,O  20,C   4,O  21)     -2.4147         0.019705   
    135. D(C  22,O  20,C   4,C   0)    177.8822         0.025243   
    136. D(H  25,C  22,O  20,C   4)     47.3217         0.022900   
    137. D(H  24,C  22,O  20,C   4)    -73.0016         0.022914   
    138. D(H  23,C  22,O  20,C   4)    167.7294         0.023706   
    -----------------------------------------------------------------

Number of atoms                         .... 26
Number of degrees of freedom            .... 138

         *************************************************************
         *                GEOMETRY OPTIMIZATION CYCLE   1            *
         *************************************************************
---------------------------------
CARTESIAN COORDINATES (ANGSTROEM)
---------------------------------
  C      0.252361    0.728866   -0.403292
  N     -0.493302    1.449714    0.448441
  H     -0.328620    1.229665    1.433634
  H      0.390283    1.139872   -1.407450
  C      1.462515    0.064152    0.220370
  C     -1.116448    2.734919    0.147325
  C     -0.807695   -0.885684   -1.034586
  C     -2.164216   -0.225265   -1.197221
  C     -2.733354   -0.332818    0.172535
  C     -2.013462   -1.249072    0.908835
  C     -0.883929   -1.645384    0.150675
  H     -0.198120   -1.198246   -1.886226
  H     -3.642835    0.175085    0.501822
  H     -2.770230   -0.868925   -1.867748
  H     -2.197981    0.776732   -1.648053
  H     -2.261930   -1.606513    1.908989
  H     -0.144376   -2.378057    0.480154
  H     -2.015381    2.871161    0.762845
  H     -0.418585    3.562434    0.358008
  H     -1.401755    2.782335   -0.912652
  O      2.377281   -0.218469   -0.688865
  O      1.522715   -0.158050    1.404259
  C      3.609779   -0.815122   -0.225708
  H      4.126892   -1.171742   -1.122927
  H      4.212858   -0.055861    0.291902
  H      3.397495   -1.642218    0.464556

----------------------------
CARTESIAN COORDINATES (A.U.)
----------------------------
  NO LB      ZA    FRAG     MASS         X           Y           Z
   0 C     6.0000    0    12.011    0.476894    1.377357   -0.762112
   1 N     7.0000    0    14.007   -0.932206    2.739562    0.847431
   2 H     1.0000    0     1.008   -0.621002    2.323730    2.709175
   3 H     1.0000    0     1.008    0.737528    2.154046   -2.659695
   4 C     6.0000    0    12.011    2.763752    0.121230    0.416440
   5 C     6.0000    0    12.011   -2.109781    5.168248    0.278403
   6 C     6.0000    0    12.011   -1.526323   -1.673701   -1.955084
   7 C     6.0000    0    12.011   -4.089776   -0.425689   -2.262419
   8 C     6.0000    0    12.011   -5.165291   -0.628935    0.326045
   9 C     6.0000    0    12.011   -3.804892   -2.360403    1.717449
  10 C     6.0000    0    12.011   -1.670384   -3.109326    0.284735
  11 H     1.0000    0     1.008   -0.374392   -2.264357   -3.564451
  12 H     1.0000    0     1.008   -6.883961    0.330862    0.948307
  13 H     1.0000    0     1.008   -5.234975   -1.642030   -3.529532
  14 H     1.0000    0     1.008   -4.153582    1.467810   -3.114368
  15 H     1.0000    0     1.008   -4.274428   -3.035869    3.607466
  16 H     1.0000    0     1.008   -0.272830   -4.493877    0.907359
  17 H     1.0000    0     1.008   -3.808518    5.425708    1.441568
  18 H     1.0000    0     1.008   -0.791012    6.732025    0.676537
  19 H     1.0000    0     1.008   -2.648933    5.257851   -1.724662
  20 O     8.0000    0    15.999    4.492410   -0.412847   -1.301766
  21 O     8.0000    0    15.999    2.877515   -0.298671    2.653666
  22 C     6.0000    0    12.011    6.821494   -1.540357   -0.426525
  23 H     1.0000    0     1.008    7.798695   -2.214272   -2.122025
  24 H     1.0000    0     1.008    7.961148   -0.105562    0.551614
  25 H     1.0000    0     1.008    6.420335   -3.103342    0.877884

--------------------------------
INTERNAL COORDINATES (ANGSTROEM)
--------------------------------
 C      0   0   0     0.000000000000     0.00000000     0.00000000
 N      1   0   0     1.342045305734     0.00000000     0.00000000
 H      2   1   0     1.022812703402   113.97217825     0.00000000
 H      1   2   3     1.093746223307   116.80092174   200.95031345
 C      1   2   3     1.515015026878   114.72217717   342.01413367
 C      2   1   3     1.459703907267   125.39348869   158.31783713
 C      1   2   3     2.031999955671   109.51761586    95.10008982
 C      7   1   2     1.517482477861    98.84970528    39.96242720
 C      8   7   1     1.487184119865   102.23466760   273.65977437
 C      9   8   7     1.378369298178   109.88926387   344.48870217
 C      7   1   2     1.409893528060   101.25454807   291.53751054
 H      7   1   2     1.092963354565   100.27365499   165.63381379
 H      9   8   7     1.092497502743   124.23387335   169.71311733
 H      8   7   1     1.109575216065   107.48994739   160.31803335
 H      8   7   1     1.099266203547   117.91163721    41.61079760
 H     10   9   8     1.090783118886   126.06189543   186.60201014
 H     11   7   1     1.091927294729   125.35191907   271.92381091
 H      6   2   1     1.097955696812   110.06733355   152.40648679
 H      6   2   1     1.102806092521   110.55558135   272.30280466
 H      6   2   1     1.098725632036   110.35650460    32.26182122
 O      5   1   2     1.320371533797   111.33604201   201.94615774
 O      5   1   2     1.206064221138   121.65415029    22.22465059
 C     21   5   1     1.445531378809   117.28512817   177.88216013
 H     23  21   5     1.095256467378   105.93105080   167.72938989
 H     23  21   5     1.099135698965   109.48657472   286.99840183
 H     23  21   5     1.098005612687   110.33435189    47.32173727

---------------------------
INTERNAL COORDINATES (A.U.)
---------------------------
 C      0   0   0     0.000000000000     0.00000000     0.00000000
 N      1   0   0     2.536098087151     0.00000000     0.00000000
 H      2   1   0     1.932835895725   113.97217825     0.00000000
 H      1   2   3     2.066880822062   116.80092174   200.95031345
 C      1   2   3     2.862963489576   114.72217717   342.01413367
 C      2   1   3     2.758440621349   125.39348869   158.31783713
 C      1   2   3     3.839923420359   109.51761586    95.10008982
 C      7   1   2     2.867626296182    98.84970528    39.96242720
 C      8   7   1     2.810370697261   102.23466760   273.65977437
 C      9   8   7     2.604740484961   109.88926387   344.48870217
 C      7   1   2     2.664312646022   101.25454807   291.53751054
 H      7   1   2     2.065401414540   100.27365499   165.63381379
 H      9   8   7     2.064521082177   124.23387335   169.71311733
 H      8   7   1     2.096793283348   107.48994739   160.31803335
 H      8   7   1     2.077312072979   117.91163721    41.61079760
 H     10   9   8     2.061281366198   126.06189543   186.60201014
 H     11   7   1     2.063443545192   125.35191907   271.92381091
 H      6   2   1     2.074835574154   110.06733355   152.40648679
 H      6   2   1     2.084001493685   110.55558135   272.30280466
 H      6   2   1     2.076290540867   110.35650460    32.26182122
 O      5   1   2     2.495140593902   111.33604201   201.94615774
 O      5   1   2     2.279131077871   121.65415029    22.22465059
 C     21   5   1     2.731658423938   117.28512817   177.88216013
 H     23  21   5     2.069734769750   105.93105080   167.72938989
 H     23  21   5     2.077065455060   109.48657472   286.99840183
 H     23  21   5     2.074929901487   110.33435189    47.32173727

---------------------
BASIS SET INFORMATION
---------------------
There are 4 groups of distinct atoms

 Group   1 Type C   : 7s4p1d contracted to 3s2p1d pattern {511/31/1}
 Group   2 Type N   : 7s4p1d contracted to 3s2p1d pattern {511/31/1}
 Group   3 Type H   : 4s1p contracted to 2s1p pattern {31/1}
 Group   4 Type O   : 7s4p1d contracted to 3s2p1d pattern {511/31/1}

Atom   0C    basis set group =>   1
Atom   1N    basis set group =>   2
Atom   2H    basis set group =>   3
Atom   3H    basis set group =>   3
Atom   4C    basis set group =>   1
Atom   5C    basis set group =>   1
Atom   6C    basis set group =>   1
Atom   7C    basis set group =>   1
Atom   8C    basis set group =>   1
Atom   9C    basis set group =>   1
Atom  10C    basis set group =>   1
Atom  11H    basis set group =>   3
Atom  12H    basis set group =>   3
Atom  13H    basis set group =>   3
Atom  14H    basis set group =>   3
Atom  15H    basis set group =>   3
Atom  16H    basis set group =>   3
Atom  17H    basis set group =>   3
Atom  18H    basis set group =>   3
Atom  19H    basis set group =>   3
Atom  20O    basis set group =>   4
Atom  21O    basis set group =>   4
Atom  22C    basis set group =>   1
Atom  23H    basis set group =>   3
Atom  24H    basis set group =>   3
Atom  25H    basis set group =>   3

-------------------------
BASIS SET IN INPUT FORMAT
-------------------------

 # Basis set for element : H 
 NewGTO H 
 S 3 
   1      13.0107010000      0.0334854848
   2       1.9622572000      0.2347218709
   3       0.4445379600      0.8137702853
 S 1 
   1       0.1219496200      1.0000000000
 P 1 
   1       0.8000000000      1.0000000000
  end;

 # Basis set for element : C 
 NewGTO C 
 S 5 
   1    1238.4016938000      0.0055173650
   2     186.2900499200      0.0410888285
   3      42.2511763460      0.1822538213
   4      11.6765579320      0.4682845944
   5       3.5930506482      0.4457581734
 S 1 
   1       0.4024514736      1.0000000000
 S 1 
   1       0.1309018267      1.0000000000
 P 3 
   1       9.4680970621      0.0568883320
   2       2.0103545142      0.3129405934
   3       0.5477100471      0.7606501651
 P 1 
   1       0.1526861379      1.0000000000
 D 1 
   1       0.8000000000      1.0000000000
  end;

 # Basis set for element : N 
 NewGTO N 
 S 5 
   1    1712.8415853000     -0.0054477995
   2     257.6481267700     -0.0406271746
   3      58.4582458530     -0.1811196225
   4      16.1983679050     -0.4684397556
   5       5.0052600809     -0.4461684629
 S 1 
   1       0.5873185657      1.0000000000
 S 1 
   1       0.1876459225      1.0000000000
 P 3 
   1      13.5714702330     -0.0588481170
   2       2.9257372874     -0.3202462476
   3       0.7992775075     -0.7532822652
 P 1 
   1       0.2195434803      1.0000000000
 D 1 
   1       1.0000000000      1.0000000000
  end;

 # Basis set for element : O 
 NewGTO O 
 S 5 
   1    2266.1767785000     -0.0053893504
   2     340.8701019100     -0.0402347214
   3      77.3631351670     -0.1800818421
   4      21.4796449400     -0.4682885766
   5       6.6589433124     -0.4469261716
 S 1 
   1       0.8097597567      1.0000000000
 S 1 
   1       0.2553077223      1.0000000000
 P 3 
   1      17.7215043170      0.0626302488
   2       3.8635505440      0.3333113849
   3       1.0480920883      0.7414863830
 P 1 
   1       0.2764154441      1.0000000000
 D 1 
   1       1.2000000000      1.0000000000
  end;

-------------------------------
AUXILIARY BASIS SET INFORMATION
-------------------------------
There are 4 groups of distinct atoms

 Group   1 Type C   : 12s5p4d2f1g contracted to 6s4p3d1f1g pattern {711111/2111/211/2/1}
 Group   2 Type N   : 12s5p4d2f1g contracted to 6s4p3d1f1g pattern {711111/2111/211/2/1}
 Group   3 Type H   : 5s2p1d contracted to 3s1p1d pattern {311/2/1}
 Group   4 Type O   : 12s5p4d2f1g contracted to 6s4p3d1f1g pattern {711111/2111/211/2/1}

Atom   0C    basis set group =>   1
Atom   1N    basis set group =>   2
Atom   2H    basis set group =>   3
Atom   3H    basis set group =>   3
Atom   4C    basis set group =>   1
Atom   5C    basis set group =>   1
Atom   6C    basis set group =>   1
Atom   7C    basis set group =>   1
Atom   8C    basis set group =>   1
Atom   9C    basis set group =>   1
Atom  10C    basis set group =>   1
Atom  11H    basis set group =>   3
Atom  12H    basis set group =>   3
Atom  13H    basis set group =>   3
Atom  14H    basis set group =>   3
Atom  15H    basis set group =>   3
Atom  16H    basis set group =>   3
Atom  17H    basis set group =>   3
Atom  18H    basis set group =>   3
Atom  19H    basis set group =>   3
Atom  20O    basis set group =>   4
Atom  21O    basis set group =>   4
Atom  22C    basis set group =>   1
Atom  23H    basis set group =>   3
Atom  24H    basis set group =>   3
Atom  25H    basis set group =>   3

-----------------------------------
AUXILIARY BASIS SET IN INPUT FORMAT
-----------------------------------

 # Auxiliary basis set for element : H 
 NewAuxGTO H 
 S 3 
   1      15.6752927000      0.1007184237
   2       3.6063578000      0.3404257499
   3       1.2080016000      0.6491996172
 S 1 
   1       0.4726794000      1.0000000000
 S 1 
   1       0.2018100000      1.0000000000
 P 2 
   1       2.0281365000      0.5596620919
   2       0.5358730000      0.5596620919
 D 1 
   1       2.2165124000      1.0000000000
  end;

 # Auxiliary basis set for element : C 
 NewAuxGTO C 
 S 7 
   1    1861.0916331000      0.0134602335
   2     642.9939764000      0.0299160374
   3     235.1105725000      0.1008649584
   4      90.7028894000      0.2370970548
   5      36.7794552000      0.3924037254
   6      15.6046273000      0.3195862154
   7       6.8907294000      0.0530104441
 S 1 
   1       3.1478850000     -1.0000000000
 S 1 
   1       1.4777287000      1.0000000000
 S 1 
   1       0.7076466000      1.0000000000
 S 1 
   1       0.3430122000      1.0000000000
 S 1 
   1       0.1669453000      1.0000000000
 P 2 
   1      13.5472892000     -0.6769313712
   2       5.4669419000     -0.3779500978
 P 1 
   1       2.1751721000      1.0000000000
 P 1 
   1       0.8582194000      1.0000000000
 P 1 
   1       0.3376720000      1.0000000000
 D 2 
   1       5.9287253000     -0.3533329857
   2       1.9809209000     -0.7456525731
 D 1 
   1       0.8055417000     -1.0000000000
 D 1 
   1       0.3531244000     -1.0000000000
 F 2 
   1       1.6755626000      0.6311076882
   2       0.5997536000      0.4968166032
 G 1 
   1       1.0024600000     -1.0000000000
  end;

 # Auxiliary basis set for element : N 
 NewAuxGTO N 
 S 7 
   1    2542.9401785000      0.0128431329
   2    1029.5472946000      0.0206655120
   3     424.9053546000      0.0652200677
   4     178.4573708000      0.1617388940
   5      76.1362742000      0.3094256941
   6      32.9338653000      0.3918849307
   7      14.4155436000      0.1822470660
 S 1 
   1       6.3718891000     -1.0000000000
 S 1 
   1       2.8381742000      1.0000000000
 S 1 
   1       1.2711793000      1.0000000000
 S 1 
   1       0.5712407000      1.0000000000
 S 1 
   1       0.2569887000      1.0000000000
 P 2 
   1      17.8975990000     -1.0974070137
   2       6.5346319000      0.1380055963
 P 1 
   1       2.3523645000      1.0000000000
 P 1 
   1       0.8397377000      1.0000000000
 P 1 
   1       0.2989335000      1.0000000000
 D 2 
   1       7.6909870000      0.1770780943
   2       2.3044972000      0.8918319220
 D 1 
   1       0.8403987000      1.0000000000
 D 1 
   1       0.3303797000      1.0000000000
 F 2 
   1       2.3331076000      0.6223178877
   2       0.8446137000      0.5036714203
 G 1 
   1       1.4037700000     -1.0000000000
  end;

 # Auxiliary basis set for element : O 
 NewAuxGTO O 
 S 7 
   1    2876.8216605000      0.0168151159
   2    1004.7443032000      0.0340137548
   3     369.7579954000      0.1194951309
   4     142.9442404000      0.2664627624
   5      57.8366425000      0.4202764046
   6      24.3864983000      0.2765077335
   7      10.6622662000      0.0057008815
 S 1 
   1       4.8070437000     -1.0000000000
 S 1 
   1       2.2210770000      1.0000000000
 S 1 
   1       1.0447795000      1.0000000000
 S 1 
   1       0.4968425000      1.0000000000
 S 1 
   1       0.2371384000      1.0000000000
 P 2 
   1      64.2613382000     -0.2731534179
   2      16.3006076000     -0.8168011598
 P 1 
   1       4.3550542000      1.0000000000
 P 1 
   1       1.2019554000      1.0000000000
 P 1 
   1       0.3354196000      1.0000000000
 D 2 
   1       9.2146611000     -0.4661230638
   2       2.8435251000     -0.6600908911
 D 1 
   1       0.9955759000     -1.0000000000
 D 1 
   1       0.3649441000     -1.0000000000
 F 2 
   1       2.6420115000      0.5931563945
   2       0.7345613000      0.5931563945
 G 1 
   1       1.3931000000     -1.0000000000
  end;



           ************************************************************
           *        Program running with 4 parallel MPI-processes     *
           *              working on a common directory               *
           ************************************************************
------------------------------------------------------------------------------
                           ORCA GTO INTEGRAL CALCULATION
                           -- RI-GTO INTEGRALS CHOSEN --
------------------------------------------------------------------------------

                         BASIS SET STATISTICS AND STARTUP INFO

Gaussian basis set:
 # of primitive gaussian shells          ...  214
 # of primitive gaussian functions       ...  386
 # of contracted shells                  ...  114
 # of contracted basis functions         ...  238
 Highest angular momentum                ...    2
 Maximum contraction depth               ...    5
Auxiliary gaussian basis set:
 # of primitive gaussian shells          ...  400
 # of primitive gaussian functions       ... 1064
 # of contracted shells                  ...  250
 # of contracted aux-basis functions     ...  742
 Highest angular momentum                ...    4
 Maximum contraction depth               ...    7
Ratio of auxiliary to basis functions    ...  3.12
Integral package used                  ... LIBINT
 One Electron integrals                  ... done
 Ordering auxiliary basis shells         ... done
 Integral threshhold             Thresh  ...  2.500e-11
 Primitive cut-off               TCut    ...  2.500e-12
 Pre-screening matrix                    ... done
 Shell pair data                         ... 
 Ordering of the shell pairs             ... done (   0.002 sec) 5884 of 6555 pairs
 Determination of significant pairs      ... done (   0.000 sec)
 Creation of shell pair data             ... done (   0.001 sec)
 Storage of shell pair data              ... done (   0.001 sec)
 Shell pair data done in (   0.005 sec)
 Computing two index integrals           ... done
 Cholesky decomposition of the V-matrix  ... done


Timings:
 Total evaluation time                   ...   0.241 sec (  0.004 min)
 One electron matrix time                ...   0.047 sec (  0.001 min) = 19.4%
 Schwartz matrix evaluation time         ...   0.137 sec (  0.002 min) = 56.7%
 Two index repulsion integral time       ...   0.017 sec (  0.000 min) =  7.0%
 Cholesky decomposition of V             ...   0.016 sec (  0.000 min) =  6.6%
 Three index repulsion integral time     ...   0.000 sec (  0.000 min) =  0.0%



           ************************************************************
           *        Program running with 4 parallel MPI-processes     *
           *              working on a common directory               *
           ************************************************************
-------------------------------------------------------------------------------
                                 ORCA SCF
-------------------------------------------------------------------------------

------------
SCF SETTINGS
------------
Hamiltonian:
 Density Functional     Method          .... DFT(GTOs)
 Exchange Functional    Exchange        .... X
 Correlation Functional Correlation     .... LYP
 LDA part of GGA corr.  LDAOpt          .... VWN-5
 Gradients option       PostSCFGGA      .... off
 Hybrid DFT is turned on
   Fraction HF Exchange ScalHFX         ....  0.218000
   Scaling of DF-GGA-X  ScalDFX         ....  0.709000
   Scaling of DF-GGA-C  ScalDFC         ....  0.871000
   Scaling of DF-LDA-C  ScalLDAC        ....  1.000000
   Perturbative correction              ....  0.000000
 RI-approximation to the Coulomb term is turned on
   Number of auxiliary basis functions  .... 742
   RIJ-COSX (HFX calculated with COS-X)).... on


General Settings:
 Integral files         IntName         .... r01-endo-3r-ts-opthess
 Hartree-Fock type      HFTyp           .... RHF
 Total Charge           Charge          ....    1
 Multiplicity           Mult            ....    1
 Number of Electrons    NEL             ....   90
 Basis Dimension        Dim             ....  238
 Nuclear Repulsion      ENuc            ....    739.8709567658 Eh

Convergence Acceleration:
 DIIS                   CNVDIIS         .... on
   Start iteration      DIISMaxIt       ....     0
   Startup error        DIISStart       ....  0.200000
   # of expansion vecs  DIISMaxEq       ....     5
   Bias factor          DIISBfac        ....   1.050
   Max. coefficient     DIISMaxC        ....  10.000
 Newton-Raphson         CNVNR           .... off
 SOSCF                  CNVSOSCF        .... on
   Start iteration      SOSCFMaxIt      ....   150
   Startup grad/error   SOSCFStart      ....  0.001000
 Level Shifting         CNVShift        .... on
   Level shift para.    LevelShift      ....    0.2500
   Turn off err/grad.   ShiftErr        ....    0.0000
 Zerner damping         CNVZerner       .... off
 Static damping         CNVDamp         .... on
   Fraction old density DampFac         ....    0.8500
   Max. Damping (<1)    DampMax         ....    0.9800
   Min. Damping (>=0)   DampMin         ....    0.0000
   Turn off err/grad.   DampErr         ....    0.0300
 Fernandez-Rico         CNVRico         .... off

SCF Procedure:
 Maximum # iterations   MaxIter         ....   125
 SCF integral mode      SCFMode         .... Direct
   Integral package                     .... LIBINT
 Reset frequeny         DirectResetFreq ....    20
 Integral Threshold     Thresh          ....  2.500e-11 Eh
 Primitive CutOff       TCut            ....  2.500e-12 Eh

Convergence Tolerance:
 Convergence Check Mode ConvCheckMode   .... Total+1el-Energy
 Convergence forced     ConvForced      .... 0
 Energy Change          TolE            ....  1.000e-08 Eh
 1-El. energy change                    ....  1.000e-05 Eh
 Orbital Gradient       TolG            ....  1.000e-05
 Orbital Rotation angle TolX            ....  1.000e-05
 DIIS Error             TolErr          ....  5.000e-07


Diagonalization of the overlap matrix:
Smallest eigenvalue                        ... 7.247e-04
Time for diagonalization                   ...    0.009 sec
Threshold for overlap eigenvalues          ... 1.000e-08
Number of eigenvalues below threshold      ... 0
Time for construction of square roots      ...    0.004 sec
Total time needed                          ...    0.014 sec

---------------------
INITIAL GUESS: MOREAD
---------------------
Guess MOs are being read from file: r01-endo-3r-ts-copt.gbw
Input Geometry matches current geometry (good)
Input basis set matches current basis set (good)
MOs were renormalized
MOs were reorthogonalized (Cholesky)
                      ------------------
                      INITIAL GUESS DONE (   0.0 sec)
                      ------------------
-------------------
DFT GRID GENERATION
-------------------

General Integration Accuracy     IntAcc      ...  5.010
Radial Grid Type                 RadialGrid  ... Gauss-Chebyshev
Angular Grid (max. acc.)         AngularGrid ... Lebedev-434
Angular grid pruning method      GridPruning ... 3 (G Style)
Weight generation scheme         WeightScheme... Becke
Basis function cutoff            BFCut       ...    1.0000e-11
Integration weight cutoff        WCut        ...    1.0000e-14
Grids for H and He will be reduced by one unit

# of grid points (after initial pruning)     ... 222244 (   0.0 sec)
# of grid points (after weights+screening)   ... 196457 (   0.3 sec)
nearest neighbour list constructed           ...    0.0 sec
Grid point re-assignment to atoms done       ...    0.1 sec
Grid point division into batches done        ...    1.2 sec
Reduced shell lists constructed in    1.6 sec

Total number of grid points                  ...   196457
Total number of batches                      ...     3083
Average number of points per batch           ...       63
Average number of grid points per atom       ...     7556
Average number of shells per batch           ...    81.15 (71.19%)
Average number of basis functions per batch  ...   165.49 (69.53%)
Average number of large shells per batch     ...    60.88 (75.02%)
Average number of large basis fcns per batch ...   119.80 (72.39%)
Maximum spatial batch extension              ...  10.23, 11.49, 20.76 au
Average spatial batch extension              ...   0.28,  0.29,  0.29 au

Time for grid setup =    1.925 sec

--------------------
COSX GRID GENERATION
--------------------

General Integration Accuracy     IntAcc      ...  3.340
Radial Grid Type                 RadialGrid  ... Gauss-Chebyshev
Angular Grid (max. acc.)         AngularGrid ... Lebedev-50
Angular grid pruning method      GridPruning ... 3 (G Style)
Weight generation scheme         WeightScheme... Becke
Basis function cutoff            BFCut       ...    1.0000e-11
Integration weight cutoff        WCut        ...    1.0000e-14
Grids for H and He will be reduced by one unit

# of grid points (after initial pruning)     ...  11426 (   0.0 sec)
# of grid points (after weights+screening)   ...  10400 (   0.0 sec)
nearest neighbour list constructed           ...    0.0 sec
Grid point re-assignment to atoms done       ...    0.0 sec
Grid point division into batches done        ...    0.0 sec
Reduced shell lists constructed in    0.0 sec

Total number of grid points                  ...    10400
Total number of batches                      ...      177
Average number of points per batch           ...       58
Average number of grid points per atom       ...      400
Average number of shells per batch           ...    89.54 (78.55%)
Average number of basis functions per batch  ...   186.80 (78.49%)
Average number of large shells per batch     ...    69.54 (77.66%)
Average number of large basis fcns per batch ...   139.07 (74.44%)
Maximum spatial batch extension              ...  11.19, 10.25, 14.40 au
Average spatial batch extension              ...   0.68,  0.70,  0.76 au

Overlap Fitting                  UseSFitting ... on
Constructing numerical overlap ... done (      0.0 sec)
Inverting numerical overlap    ... done (      0.0 sec)
Obtaining analytic overlap     ... done (      0.0 sec)
Final contraction and storage  ... done (      0.0 sec)


General Integration Accuracy     IntAcc      ...  3.670
Radial Grid Type                 RadialGrid  ... Gauss-Chebyshev
Angular Grid (max. acc.)         AngularGrid ... Lebedev-50
Angular grid pruning method      GridPruning ... 3 (G Style)
Weight generation scheme         WeightScheme... Becke
Basis function cutoff            BFCut       ...    1.0000e-11
Integration weight cutoff        WCut        ...    1.0000e-14
Grids for H and He will be reduced by one unit

# of grid points (after initial pruning)     ...  14624 (   0.0 sec)
# of grid points (after weights+screening)   ...  13281 (   0.0 sec)
nearest neighbour list constructed           ...    0.0 sec
Grid point re-assignment to atoms done       ...    0.0 sec
Grid point division into batches done        ...    0.0 sec
Reduced shell lists constructed in    0.0 sec

Total number of grid points                  ...    13281
Total number of batches                      ...      219
Average number of points per batch           ...       60
Average number of grid points per atom       ...      511
Average number of shells per batch           ...    89.21 (78.26%)
Average number of basis functions per batch  ...   185.82 (78.08%)
Average number of large shells per batch     ...    69.11 (77.46%)
Average number of large basis fcns per batch ...   138.39 (74.48%)
Maximum spatial batch extension              ...  12.58, 11.22, 17.40 au
Average spatial batch extension              ...   0.66,  0.69,  0.68 au

Overlap Fitting                  UseSFitting ... on
Constructing numerical overlap ... done (      0.0 sec)
Inverting numerical overlap    ... done (      0.0 sec)
Obtaining analytic overlap     ... done (      0.0 sec)
Final contraction and storage  ... done (      0.0 sec)


General Integration Accuracy     IntAcc      ...  4.010
Radial Grid Type                 RadialGrid  ... Gauss-Chebyshev
Angular Grid (max. acc.)         AngularGrid ... Lebedev-110
Angular grid pruning method      GridPruning ... 3 (G Style)
Weight generation scheme         WeightScheme... Becke
Basis function cutoff            BFCut       ...    1.0000e-11
Integration weight cutoff        WCut        ...    1.0000e-14
Grids for H and He will be reduced by one unit

# of grid points (after initial pruning)     ...  26876 (   0.0 sec)
# of grid points (after weights+screening)   ...  24345 (   0.0 sec)
nearest neighbour list constructed           ...    0.0 sec
Grid point re-assignment to atoms done       ...    0.0 sec
Grid point division into batches done        ...    0.0 sec
Reduced shell lists constructed in    0.1 sec

Total number of grid points                  ...    24345
Total number of batches                      ...      395
Average number of points per batch           ...       61
Average number of grid points per atom       ...      936
Average number of shells per batch           ...    87.57 (76.82%)
Average number of basis functions per batch  ...   181.67 (76.33%)
Average number of large shells per batch     ...    67.41 (76.98%)
Average number of large basis fcns per batch ...   134.85 (74.23%)
Maximum spatial batch extension              ...  10.99, 12.03, 18.88 au
Average spatial batch extension              ...   0.56,  0.58,  0.64 au

Overlap Fitting                  UseSFitting ... on
Constructing numerical overlap ... done (      0.0 sec)
Inverting numerical overlap    ... done (      0.0 sec)
Obtaining analytic overlap     ... done (      0.0 sec)
Final contraction and storage  ... done (      0.0 sec)

Time for X-Grid setup             =    0.377 sec
--------------
SCF ITERATIONS
--------------
ITER       Energy         Delta-E        Max-DP      RMS-DP      [F,P]     Damp
               ***  Starting incremental Fock matrix formation  ***
                      *** Initiating the SOSCF procedure ***
                      *** Re-Reading the Fockian *** 
                      *** Removing any level shift *** 
ITER      Energy       Delta-E        Grad      Rot      Max-DP    RMS-DP
  0   -555.40837921 -555.4083792121  0.000001  0.000001  0.000003  0.000000
               *** Restarting incremental Fock matrix formation ***
                  ***Gradient check signals convergence***
              ***Rediagonalizing the Fockian in SOSCF/NRSCF***

               *****************************************************
               *                     SUCCESS                       *
               *           SCF CONVERGED AFTER   1 CYCLES          *
               *****************************************************

Old exchange energy                            =    -16.179143113 Eh
New exchange energy                            =    -16.179206064 Eh
Exchange energy change after final integration =     -0.000062951 Eh
Total energy after final integration           =   -555.408442164 Eh
Final COS-X integration done in                =     3.253 sec

----------------
TOTAL SCF ENERGY
----------------

Total Energy       :         -555.40844216 Eh          -15113.43206 eV

Components:
Nuclear Repulsion  :          739.87095677 Eh           20132.91227 eV
Electronic Energy  :        -1295.27939893 Eh          -35246.34433 eV
One Electron Energy:        -2207.26446687 Eh          -60062.71967 eV
Two Electron Energy:          911.98506794 Eh           24816.37534 eV

Virial components:
Potential Energy   :        -1105.41022626 Eh          -30079.74148 eV
Kinetic Energy     :          550.00178410 Eh           14966.30942 eV
Virial Ratio       :            2.00983026


DFT components:
N(Alpha)           :       44.999993627900 electrons
N(Beta)            :       44.999993627900 electrons
N(Total)           :       89.999987255800 electrons
E(X)               :      -57.675449839900 Eh       
E(C)               :       -3.402613421243 Eh       
E(XC)              :      -61.078063261143 Eh       

---------------
SCF CONVERGENCE
---------------

  Last Energy change         ...   -9.7259e-10  Tolerance :   1.0000e-08
  Last MAX-Density change    ...    3.5409e-14  Tolerance :   1.0000e-07
  Last RMS-Density change    ...    2.5843e-16  Tolerance :   5.0000e-09
  Last Orbital Gradient      ...    1.0432e-06  Tolerance :   1.0000e-05
  Last Orbital Rotation      ...    6.6392e-06  Tolerance :   1.0000e-05

             **** THE GBW FILE WAS UPDATED (r01-endo-3r-ts-opthess.gbw) ****
             **** DENSITY FILE WAS UPDATED (r01-endo-3r-ts-opthess.scfp.tmp) ****
             **** ENERGY FILE WAS UPDATED (r01-endo-3r-ts-opthess.en.tmp) ****
----------------
ORBITAL ENERGIES
----------------

  NO   OCC          E(Eh)            E(eV) 
   0   2.0000     -19.358615      -526.7747 
   1   2.0000     -19.304305      -525.2969 
   2   2.0000     -14.567345      -396.3976 
   3   2.0000     -10.490908      -285.4721 
   4   2.0000     -10.450083      -284.3612 
   5   2.0000     -10.405250      -283.1412 
   6   2.0000     -10.401389      -283.0362 
   7   2.0000     -10.400672      -283.0167 
   8   2.0000     -10.395857      -282.8856 
   9   2.0000     -10.389994      -282.7261 
  10   2.0000     -10.384437      -282.5749 
  11   2.0000     -10.380293      -282.4621 
  12   2.0000      -1.255424       -34.1618 
  13   2.0000      -1.169113       -31.8132 
  14   2.0000      -1.119025       -30.4502 
  15   2.0000      -1.040376       -28.3101 
  16   2.0000      -0.921785       -25.0830 
  17   2.0000      -0.881873       -23.9970 
  18   2.0000      -0.875432       -23.8217 
  19   2.0000      -0.865635       -23.5551 
  20   2.0000      -0.800801       -21.7909 
  21   2.0000      -0.738896       -20.1064 
  22   2.0000      -0.727825       -19.8051 
  23   2.0000      -0.701828       -19.0977 
  24   2.0000      -0.691677       -18.8215 
  25   2.0000      -0.690073       -18.7779 
  26   2.0000      -0.656069       -17.8525 
  27   2.0000      -0.648206       -17.6386 
  28   2.0000      -0.624735       -16.9999 
  29   2.0000      -0.616109       -16.7652 
  30   2.0000      -0.606217       -16.4960 
  31   2.0000      -0.585442       -15.9307 
  32   2.0000      -0.566593       -15.4178 
  33   2.0000      -0.560599       -15.2547 
  34   2.0000      -0.558864       -15.2075 
  35   2.0000      -0.552408       -15.0318 
  36   2.0000      -0.547239       -14.8911 
  37   2.0000      -0.544896       -14.8274 
  38   2.0000      -0.536431       -14.5970 
  39   2.0000      -0.500534       -13.6202 
  40   2.0000      -0.497085       -13.5264 
  41   2.0000      -0.459880       -12.5140 
  42   2.0000      -0.452207       -12.3052 
  43   2.0000      -0.439495       -11.9593 
  44   2.0000      -0.408291       -11.1102 
  45   0.0000      -0.251164        -6.8345 
  46   0.0000      -0.169090        -4.6012 
  47   0.0000      -0.123025        -3.3477 
  48   0.0000      -0.092057        -2.5050 
  49   0.0000      -0.070968        -1.9311 
  50   0.0000      -0.061380        -1.6702 
  51   0.0000      -0.055563        -1.5119 
  52   0.0000      -0.044938        -1.2228 
  53   0.0000      -0.036144        -0.9835 
  54   0.0000      -0.033216        -0.9039 
  55   0.0000      -0.018655        -0.5076 
  56   0.0000      -0.016322        -0.4441 
  57   0.0000      -0.005669        -0.1543 
  58   0.0000      -0.001970        -0.0536 
  59   0.0000       0.007563         0.2058 
  60   0.0000       0.010791         0.2936 
  61   0.0000       0.019498         0.5306 
  62   0.0000       0.032648         0.8884 
  63   0.0000       0.037074         1.0088 
  64   0.0000       0.044061         1.1989 
  65   0.0000       0.054483         1.4826 
  66   0.0000       0.068454         1.8627 
  67   0.0000       0.092711         2.5228 
  68   0.0000       0.134191         3.6515 
  69   0.0000       0.138760         3.7759 
  70   0.0000       0.159927         4.3518 
  71   0.0000       0.181701         4.9443 
  72   0.0000       0.204896         5.5755 
  73   0.0000       0.224589         6.1114 
  74   0.0000       0.239211         6.5093 
  75   0.0000       0.251408         6.8412 
  76   0.0000       0.261176         7.1070 
  77   0.0000       0.281274         7.6538 
  78   0.0000       0.293120         7.9762 
  79   0.0000       0.297247         8.0885 
  80   0.0000       0.321994         8.7619 
  81   0.0000       0.328926         8.9505 
  82   0.0000       0.335010         9.1161 
  83   0.0000       0.342724         9.3260 
  84   0.0000       0.346253         9.4220 
  85   0.0000       0.360887         9.8202 
  86   0.0000       0.383438        10.4339 
  87   0.0000       0.389174        10.5900 
  88   0.0000       0.400065        10.8863 
  89   0.0000       0.432249        11.7621 
  90   0.0000       0.455205        12.3868 
  91   0.0000       0.463155        12.6031 
  92   0.0000       0.466713        12.6999 
  93   0.0000       0.474075        12.9002 
  94   0.0000       0.489632        13.3236 
  95   0.0000       0.493098        13.4179 
  96   0.0000       0.503041        13.6884 
  97   0.0000       0.504472        13.7274 
  98   0.0000       0.507700        13.8152 
  99   0.0000       0.517085        14.0706 
 100   0.0000       0.522048        14.2056 
 101   0.0000       0.530367        14.4320 
 102   0.0000       0.533739        14.5238 
 103   0.0000       0.537459        14.6250 
 104   0.0000       0.541306        14.7297 
 105   0.0000       0.549548        14.9539 
 106   0.0000       0.552601        15.0370 
 107   0.0000       0.561326        15.2744 
 108   0.0000       0.571650        15.5554 
 109   0.0000       0.583263        15.8714 
 110   0.0000       0.593159        16.1407 
 111   0.0000       0.603542        16.4232 
 112   0.0000       0.613246        16.6873 
 113   0.0000       0.634170        17.2566 
 114   0.0000       0.639359        17.3979 
 115   0.0000       0.645114        17.5545 
 116   0.0000       0.660020        17.9601 
 117   0.0000       0.699373        19.0309 
 118   0.0000       0.737990        20.0817 
 119   0.0000       0.796134        21.6639 
 120   0.0000       0.799086        21.7442 
 121   0.0000       0.830760        22.6061 
 122   0.0000       0.833279        22.6747 
 123   0.0000       0.876078        23.8393 
 124   0.0000       0.889467        24.2036 
 125   0.0000       0.904967        24.6254 
 126   0.0000       0.918391        24.9907 
 127   0.0000       0.965717        26.2785 
 128   0.0000       0.976455        26.5707 
 129   0.0000       0.992357        27.0034 
 130   0.0000       1.010022        27.4841 
 131   0.0000       1.042039        28.3553 
 132   0.0000       1.065456        28.9925 
 133   0.0000       1.095054        29.7979 
 134   0.0000       1.115882        30.3647 
 135   0.0000       1.127023        30.6679 
 136   0.0000       1.139593        31.0099 
 137   0.0000       1.182939        32.1894 
 138   0.0000       1.204326        32.7714 
 139   0.0000       1.239236        33.7213 
 140   0.0000       1.251154        34.0456 
 141   0.0000       1.287320        35.0298 
 142   0.0000       1.319639        35.9092 
 143   0.0000       1.369225        37.2585 
 144   0.0000       1.377401        37.4810 
 145   0.0000       1.394452        37.9450 
 146   0.0000       1.402955        38.1763 
 147   0.0000       1.417341        38.5678 
 148   0.0000       1.429085        38.8874 
 149   0.0000       1.447901        39.3994 
 150   0.0000       1.481565        40.3154 
 151   0.0000       1.492722        40.6190 
 152   0.0000       1.499226        40.7960 
 153   0.0000       1.538380        41.8614 
 154   0.0000       1.558585        42.4113 
 155   0.0000       1.569998        42.7218 
 156   0.0000       1.591711        43.3127 
 157   0.0000       1.598126        43.4872 
 158   0.0000       1.607840        43.7516 
 159   0.0000       1.616060        43.9752 
 160   0.0000       1.631291        44.3897 
 161   0.0000       1.635765        44.5114 
 162   0.0000       1.644556        44.7506 
 163   0.0000       1.660755        45.1914 
 164   0.0000       1.670880        45.4670 
 165   0.0000       1.674397        45.5627 
 166   0.0000       1.690922        46.0123 
 167   0.0000       1.697917        46.2027 
 168   0.0000       1.715111        46.6705 
 169   0.0000       1.721463        46.8434 
 170   0.0000       1.743128        47.4329 
 171   0.0000       1.762015        47.9469 
 172   0.0000       1.769315        48.1455 
 173   0.0000       1.792696        48.7817 
 174   0.0000       1.794589        48.8333 
 175   0.0000       1.807874        49.1948 
 176   0.0000       1.822058        49.5807 
 177   0.0000       1.844475        50.1907 
 178   0.0000       1.858290        50.5666 
 179   0.0000       1.869158        50.8624 
 180   0.0000       1.883253        51.2459 
 181   0.0000       1.908875        51.9431 
 182   0.0000       1.915640        52.1272 
 183   0.0000       1.943521        52.8859 
 184   0.0000       1.954830        53.1936 
 185   0.0000       1.969673        53.5975 
 186   0.0000       1.977156        53.8012 
 187   0.0000       1.984683        54.0060 
 188   0.0000       2.008842        54.6634 
 189   0.0000       2.017311        54.8938 
 190   0.0000       2.068671        56.2914 
 191   0.0000       2.077292        56.5260 
 192   0.0000       2.105317        57.2886 
 193   0.0000       2.138330        58.1869 
 194   0.0000       2.172512        59.1170 
 195   0.0000       2.186980        59.5108 
 196   0.0000       2.199823        59.8602 
 197   0.0000       2.215198        60.2786 
 198   0.0000       2.247862        61.1674 
 199   0.0000       2.268853        61.7386 
 200   0.0000       2.281418        62.0805 
 201   0.0000       2.303313        62.6763 
 202   0.0000       2.324820        63.2616 
 203   0.0000       2.362035        64.2742 
 204   0.0000       2.372003        64.5455 
 205   0.0000       2.390973        65.0617 
 206   0.0000       2.439995        66.3956 
 207   0.0000       2.474391        67.3316 
 208   0.0000       2.504436        68.1492 
 209   0.0000       2.532911        68.9240 
 210   0.0000       2.540225        69.1230 
 211   0.0000       2.544016        69.2262 
 212   0.0000       2.561570        69.7039 
 213   0.0000       2.566122        69.8277 
 214   0.0000       2.595949        70.6394 
 215   0.0000       2.619721        71.2862 
 216   0.0000       2.621780        71.3423 
 217   0.0000       2.630069        71.5678 
 218   0.0000       2.683238        73.0146 
 219   0.0000       2.707592        73.6773 
 220   0.0000       2.745237        74.7017 
 221   0.0000       2.760722        75.1231 
 222   0.0000       2.776027        75.5395 
 223   0.0000       2.807607        76.3989 
 224   0.0000       2.827657        76.9445 
 225   0.0000       2.843412        77.3732 
 226   0.0000       2.873310        78.1867 
 227   0.0000       2.883211        78.4562 
 228   0.0000       2.929546        79.7170 
 229   0.0000       2.983859        81.1949 
 230   0.0000       3.021888        82.2297 
 231   0.0000       3.093581        84.1806 
 232   0.0000       3.134949        85.3063 
 233   0.0000       3.215459        87.4971 
 234   0.0000       3.267697        88.9186 
 235   0.0000       3.293971        89.6335 
 236   0.0000       3.510955        95.5379 
 237   0.0000       3.558728        96.8379 
------------------
MOLECULAR ORBITALS
------------------
                      0         1         2         3         4         5   
                 -19.35862 -19.30431 -14.56734 -10.49091 -10.45008 -10.40525
                   2.00000   2.00000   2.00000   2.00000   2.00000   2.00000
                  --------  --------  --------  --------  --------  --------
  0C   1s        -0.000102 -0.000070 -0.000416 -0.001619  0.987982  0.000542
  0C   2s         0.001386  0.000786  0.001962  0.000716  0.053016 -0.000341
  0C   3s        -0.003026 -0.006068 -0.023468 -0.002394 -0.050872 -0.001637
  0C   1pz        0.000178  0.000171  0.000989  0.000587 -0.000068 -0.000190
  0C   1px        0.000165  0.000259 -0.000725  0.001246 -0.000790  0.000302
  0C   1py       -0.000323 -0.000188  0.000259  0.000009  0.000119 -0.000039
  0C   2pz       -0.004108  0.005944 -0.004871  0.003863 -0.002493  0.000062
  0C   2px        0.004376 -0.008809  0.005382 -0.003064 -0.000059  0.002514
  0C   2py        0.001605  0.003550 -0.003377 -0.001008  0.008654 -0.000100
  0C   1dz2      -0.000368  0.000329  0.000427 -0.000423  0.001165 -0.000032
  0C   1dxz      -0.000048  0.000381 -0.001221  0.000915 -0.000823  0.000147
  0C   1dyz       0.000040 -0.000211  0.001115 -0.000308 -0.000556  0.000088
  0C   1dx2y2     0.000165 -0.000310  0.000018  0.000796  0.000070 -0.000138
  0C   1dxy      -0.000224  0.000021 -0.000698 -0.001128 -0.001156 -0.000037
  1N   1s         0.000024  0.000009  0.988173  0.000072 -0.000196 -0.000158
  1N   2s         0.000376 -0.000084 -0.047788  0.001241 -0.001574 -0.001816
  1N   3s         0.001997 -0.003802  0.044183 -0.005619  0.004576  0.004503
  1N   1pz       -0.000054  0.000078  0.000120 -0.000054 -0.000640 -0.000123
  1N   1px       -0.000295  0.000149  0.000732 -0.000313  0.000886 -0.000506
  1N   1py        0.000089  0.000195 -0.000397  0.000377 -0.000968 -0.000460
  1N   2pz       -0.001026  0.002230 -0.007662 -0.000270  0.003419 -0.000238
  1N   2px       -0.001550  0.000718  0.001135 -0.002893 -0.001523 -0.001229
  1N   2py       -0.000331  0.001480 -0.000359  0.003514 -0.001257 -0.003125
  1N   1dz2      -0.000131  0.000013 -0.001289 -0.000102 -0.000238  0.000069
  1N   1dxz       0.000074  0.000059 -0.000102 -0.000014  0.000924 -0.000028
  1N   1dyz       0.000014 -0.000057  0.000277 -0.000093 -0.000641  0.000008
  1N   1dx2y2    -0.000162  0.000076  0.000125 -0.000055 -0.000082 -0.000055
  1N   1dxy       0.000102 -0.000125  0.000584  0.000229  0.001006  0.000073
  2H   1s         0.000417 -0.000197  0.003010  0.000993 -0.000415 -0.001057
  2H   2s        -0.000570 -0.000184 -0.002636 -0.000943  0.000178  0.000081
  2H   1pz       -0.000031  0.000105 -0.003425  0.000048 -0.000472  0.000161
  2H   1px       -0.000110  0.000081 -0.000610 -0.000304  0.000630  0.000313
  2H   1py        0.000144 -0.000234  0.000812  0.000169 -0.000602  0.000290
  3H   1s        -0.000246  0.000907  0.000806  0.000791 -0.002961  0.000255
  3H   2s        -0.001293  0.001917  0.002429  0.001208  0.007489 -0.000213
  3H   1pz        0.000080 -0.000310  0.000076 -0.000115 -0.002651  0.000009
  3H   1px        0.000086  0.000179 -0.000268 -0.000289  0.000375 -0.000104
  3H   1py       -0.000154 -0.000163  0.000251  0.000211  0.000614 -0.000012
  4C   1s        -0.000158 -0.000318 -0.000073 -0.988139 -0.000968 -0.000117
  4C   2s        -0.000803 -0.001883  0.000708 -0.050003 -0.002003  0.000389
  4C   3s        -0.008462 -0.007763  0.003492  0.014745  0.012122 -0.001725
  4C   1pz        0.000057  0.000357 -0.000066 -0.000122  0.000472 -0.000061
  4C   1px       -0.000413  0.000036 -0.000255 -0.000532  0.000761 -0.000161
  4C   1py       -0.000004 -0.000333  0.000082  0.000812 -0.000885 -0.000018
  4C   2pz        0.015062 -0.026298 -0.000601 -0.003597 -0.000427 -0.000123
  4C   2px       -0.009604  0.000400 -0.001020 -0.009129 -0.006345  0.001709
  4C   2py        0.002193  0.005043  0.000945  0.003155  0.002985 -0.000551
  4C   1dz2       0.000703  0.001711 -0.000118 -0.001962  0.000135 -0.000015
  4C   1dxz      -0.001097 -0.000106  0.000031  0.000913 -0.000753 -0.000039
  4C   1dyz       0.000369 -0.000412 -0.000115  0.000389  0.000607  0.000043
  4C   1dx2y2     0.000191 -0.000091  0.000107 -0.001213 -0.000489  0.000018
  4C   1dxy       0.000144  0.000101 -0.000002  0.001225  0.001146  0.000041
  5C   1s         0.000021  0.000002 -0.000194 -0.000135  0.000121 -0.006767
  5C   2s        -0.000240  0.000146  0.000317 -0.000912 -0.000438 -0.001148
  5C   3s        -0.000360 -0.000503 -0.013086 -0.000048  0.002654  0.001925
  5C   1pz       -0.000035 -0.000033  0.000311 -0.000075  0.000058  0.000032
  5C   1px       -0.000038 -0.000012  0.000158 -0.000168  0.000001  0.000143
  5C   1py        0.000120 -0.000001 -0.000394  0.000282 -0.000150  0.000303
  5C   2pz        0.000438 -0.000458  0.000107 -0.000162 -0.003107 -0.000620
  5C   2px        0.000521 -0.000915 -0.001286  0.000985  0.002063 -0.000176
  5C   2py        0.000329 -0.000222  0.003742  0.000383 -0.000762 -0.001616
  5C   1dz2       0.000010 -0.000010 -0.000462 -0.000007 -0.000162  0.000092
  5C   1dxz       0.000024 -0.000059  0.000413  0.000004 -0.000037  0.000053
  5C   1dyz       0.000008  0.000053 -0.000835  0.000050  0.000284 -0.000047
  5C   1dx2y2     0.000090 -0.000056 -0.000839  0.000051 -0.000081  0.000185
  5C   1dxy      -0.000030  0.000069 -0.001021  0.000006 -0.000263 -0.000261
  6C   1s         0.000092  0.000011 -0.000006  0.000046 -0.000397 -0.000088
  6C   2s        -0.001783 -0.000044 -0.000849  0.000903 -0.002111 -0.000706
  6C   3s         0.008919 -0.002900  0.005972  0.005509  0.004037  0.000155
  6C   1pz       -0.000200 -0.000040  0.000000  0.000255 -0.000092 -0.000028
  6C   1px       -0.000133 -0.000025  0.000164  0.000273  0.000127 -0.000105
  6C   1py       -0.000102 -0.000047  0.000215 -0.000190  0.000314 -0.000058
  6C   2pz        0.004241 -0.003841  0.001265  0.000525 -0.000500  0.001453
  6C   2px        0.001350 -0.000252 -0.001132 -0.004744  0.006514 -0.000256
  6C   2py        0.000234  0.002627  0.002612  0.000174  0.003423  0.002001
  6C   1dz2       0.000070 -0.000136 -0.000070  0.000038 -0.000061  0.000053
  6C   1dxz       0.000050 -0.000066 -0.000070 -0.000145  0.000268 -0.000322
  6C   1dyz       0.000041 -0.000023  0.000094 -0.000110  0.000150  0.000168
  6C   1dx2y2     0.000019  0.000071 -0.000122 -0.000016 -0.000052  0.000053
  6C   1dxy       0.000065  0.000098  0.000030 -0.000176  0.000265 -0.000028
  7C   1s         0.000026 -0.000031 -0.000077 -0.000036 -0.000179  0.004605
  7C   2s        -0.000421  0.000707  0.000954 -0.000002 -0.001559 -0.000863
  7C   3s         0.001133 -0.003805 -0.001369 -0.005013  0.006469  0.010123
  7C   1pz       -0.000026  0.000045  0.000368 -0.000037 -0.000308 -0.001447
  7C   1px       -0.000122  0.000111 -0.000021 -0.000160 -0.000202  0.000746
  7C   1py        0.000045  0.000046  0.000174 -0.000056 -0.000171  0.000208
  7C   2pz        0.000181 -0.000267  0.000153 -0.000336  0.003666  0.003893
  7C   2px        0.000250 -0.001875 -0.001622 -0.001366  0.002369 -0.000654
  7C   2py       -0.000458 -0.000727 -0.001121  0.002010  0.001579 -0.001274
  7C   1dz2       0.000002  0.000022  0.000109  0.000018 -0.000124 -0.001207
  7C   1dxz      -0.000062  0.000030  0.000109 -0.000013 -0.000022  0.001053
  7C   1dyz       0.000043  0.000014  0.000111 -0.000063  0.000038  0.000405
  7C   1dx2y2     0.000013 -0.000052 -0.000011 -0.000062  0.000107 -0.000244
  7C   1dxy      -0.000023  0.000010  0.000115  0.000004  0.000035  0.000014
  8C   1s         0.000008 -0.000006 -0.000140 -0.000059 -0.000414  0.988074
  8C   2s         0.000059  0.000046  0.002146 -0.000569 -0.000341  0.049356
  8C   3s        -0.003248  0.002530 -0.008289  0.001403 -0.003043 -0.045645
  8C   1pz       -0.000030 -0.000013 -0.000062 -0.000092  0.000123  0.000254
  8C   1px       -0.000020  0.000015  0.000557 -0.000126 -0.000244  0.000243
  8C   1py        0.000007 -0.000038  0.000177  0.000073 -0.000071  0.000161
  8C   2pz        0.000070  0.000238  0.000035  0.000059  0.001172  0.002410
  8C   2px       -0.001422  0.001049 -0.004570  0.000652 -0.000654 -0.009219
  8C   2py        0.001020 -0.000129  0.001961 -0.001084 -0.000652  0.004536
  8C   1dz2       0.000011 -0.000030 -0.000109  0.000047  0.000111 -0.000365
  8C   1dxz       0.000031 -0.000046 -0.000027 -0.000036  0.000203 -0.000770
  8C   1dyz      -0.000003 -0.000023  0.000114 -0.000057  0.000056 -0.000217
  8C   1dx2y2    -0.000042 -0.000007 -0.000067 -0.000002 -0.000119  0.000754
  8C   1dxy       0.000054 -0.000018  0.000128 -0.000058  0.000133 -0.002086
  9C   1s         0.000003  0.000001 -0.000052  0.000017 -0.000404  0.010402
  9C   2s        -0.000192  0.000080  0.000484 -0.000415 -0.000957 -0.002795
  9C   3s         0.005636 -0.002837  0.004681  0.007306 -0.006851  0.020036
  9C   1pz        0.000011 -0.000036 -0.000095  0.000018  0.000152  0.001127
  9C   1px        0.000046 -0.000023 -0.000029  0.000068 -0.000338  0.001417
  9C   1py       -0.000034 -0.000003  0.000241 -0.000106 -0.000130 -0.001405
  9C   2pz       -0.001926  0.001366 -0.001313 -0.002470  0.002202 -0.003390
  9C   2px        0.000829 -0.000405 -0.001033  0.004031 -0.002211 -0.000633
  9C   2py        0.000724 -0.001291  0.001466  0.000054  0.000721  0.002109
  9C   1dz2      -0.000030  0.000046  0.000037  0.000002 -0.000158 -0.000203
  9C   1dxz      -0.000010 -0.000004 -0.000010 -0.000069  0.000074 -0.000493
  9C   1dyz      -0.000002  0.000040 -0.000031 -0.000107  0.000096  0.001132
  9C   1dx2y2     0.000047 -0.000026 -0.000125  0.000140 -0.000083  0.000106
  9C   1dxy      -0.000042 -0.000049  0.000032  0.000032 -0.000094  0.001002
 10C   1s         0.000031  0.000024  0.000025  0.000270 -0.000703  0.003117
 10C   2s        -0.000038 -0.000849 -0.000811  0.002535 -0.003034 -0.000093
 10C   3s        -0.008995  0.008544  0.001015 -0.014061  0.012846 -0.002680
 10C   1pz        0.000147 -0.000015  0.000071  0.000068  0.000016  0.000146
 10C   1px       -0.000120 -0.000134 -0.000007  0.000265  0.000201 -0.000198
 10C   1py       -0.000115 -0.000103 -0.000055  0.000485 -0.000510  0.000058
 10C   2pz        0.000870 -0.002344 -0.000019 -0.000841  0.000163 -0.002756
 10C   2px        0.000898  0.000785  0.000155  0.002722 -0.004567  0.000706
 10C   2py       -0.002268  0.003019  0.000449 -0.005449  0.005581  0.000854
 10C   1dz2       0.000075 -0.000022 -0.000018  0.000039 -0.000022 -0.000128
 10C   1dxz       0.000080  0.000038 -0.000021 -0.000008 -0.000154  0.000102
 10C   1dyz       0.000032 -0.000091 -0.000028  0.000133 -0.000070 -0.000031
 10C   1dx2y2    -0.000050  0.000037 -0.000055  0.000001 -0.000162  0.000058
 10C   1dxy       0.000056  0.000083 -0.000055  0.000032  0.000189 -0.000290
 11H   1s        -0.000134 -0.000123  0.000040  0.000467 -0.000741  0.000194
 11H   2s        -0.000047 -0.000845 -0.000393  0.000074 -0.001207  0.000435
 11H   1pz       -0.000113  0.000031 -0.000053  0.000073  0.000141 -0.000134
 11H   1px       -0.000118  0.000064 -0.000003  0.000284 -0.000132  0.000030
 11H   1py        0.000050 -0.000119 -0.000231 -0.000015  0.000176 -0.000128
 12H   1s        -0.000091 -0.000008 -0.000395  0.000108  0.000309 -0.005504
 12H   2s        -0.000190 -0.000078 -0.000615  0.000273  0.000010  0.005329
 12H   1pz        0.000010 -0.000013  0.000123 -0.000020 -0.000092  0.001041
 12H   1px        0.000033 -0.000067  0.000101  0.000036  0.000099 -0.002561
 12H   1py       -0.000032 -0.000029  0.000147  0.000027 -0.000004  0.001557
 13H   1s        -0.000071 -0.000092 -0.000250  0.000350  0.000575 -0.000200
 13H   2s         0.000051 -0.000124 -0.000515  0.000303  0.001693  0.001503
 13H   1pz        0.000032 -0.000063 -0.000047  0.000025  0.000054  0.000626
 13H   1px        0.000011  0.000068 -0.000100 -0.000024  0.000222 -0.000247
 13H   1py        0.000034 -0.000029 -0.000088 -0.000018  0.000062 -0.000020
 14H   1s         0.000042  0.000351  0.000536 -0.000181 -0.000507  0.000321
 14H   2s         0.000116  0.000636  0.000935 -0.000001 -0.000426  0.000379
 14H   1pz        0.000054  0.000015  0.000231 -0.000041 -0.000144  0.000360
 14H   1px       -0.000005  0.000043  0.000193  0.000034 -0.000018 -0.000130
 14H   1py       -0.000001 -0.000005  0.000063 -0.000016 -0.000098 -0.000100
 15H   1s         0.000094 -0.000175 -0.000084  0.000073  0.000108  0.000011
 15H   2s         0.000028 -0.000305  0.000010  0.000340 -0.000040 -0.001272
 15H   1pz        0.000003  0.000022  0.000052 -0.000017 -0.000140 -0.000347
 15H   1px       -0.000025  0.000019  0.000072 -0.000224  0.000089 -0.000056
 15H   1py       -0.000009  0.000049 -0.000046  0.000009 -0.000079  0.000288
 16H   1s         0.000002 -0.000192 -0.000120  0.000232  0.000541  0.000175
 16H   2s         0.000574  0.000290 -0.000097 -0.000520  0.000232  0.000697
 16H   1pz       -0.000005  0.000132  0.000008  0.000133 -0.000136  0.000228
 16H   1px       -0.000051 -0.000013 -0.000043  0.000106 -0.000188 -0.000013
 16H   1py        0.000085  0.000067 -0.000068  0.000165 -0.000237 -0.000086
 17H   1s         0.000020 -0.000041  0.000850  0.000124  0.000494 -0.000345
 17H   2s         0.000103 -0.000133  0.001554  0.000571  0.001101  0.000372
 17H   1pz       -0.000061  0.000070 -0.000204 -0.000088  0.000042 -0.000008
 17H   1px       -0.000058  0.000045  0.000181 -0.000006  0.000021  0.000077
 17H   1py        0.000003  0.000020 -0.000066  0.000014  0.000158  0.000156
 18H   1s        -0.000093  0.000126  0.000748 -0.000165 -0.000370  0.000314
 18H   2s        -0.000222  0.000693  0.001010 -0.000526 -0.000107  0.000541
 18H   1pz       -0.000023  0.000003 -0.000108  0.000037  0.000325 -0.000012
 18H   1px       -0.000002 -0.000012 -0.000135 -0.000041 -0.000164 -0.000184
 18H   1py       -0.000020 -0.000023 -0.000091  0.000056  0.000006 -0.000128
 19H   1s         0.000125 -0.000043  0.000837  0.000001 -0.000423 -0.000383
 19H   2s         0.000477 -0.000618  0.002116  0.000120 -0.002026 -0.000706
 19H   1pz        0.000035 -0.000014  0.000056  0.000062  0.000033 -0.000059
 19H   1px       -0.000032  0.000020  0.000028 -0.000085 -0.000207  0.000045
 19H   1py       -0.000036  0.000075  0.000010  0.000000 -0.000155  0.000204
 20O   1s         0.988469  0.001434  0.000028 -0.000017 -0.000074  0.000010
 20O   2s        -0.044345  0.001269  0.000262 -0.001409 -0.000853  0.000119
 20O   3s         0.039935 -0.007416 -0.000858  0.009171  0.002605 -0.000512
 20O   1pz       -0.002205  0.000040 -0.000050  0.000260  0.000029  0.000016
 20O   1px        0.000279 -0.000415 -0.000126 -0.000827  0.000344 -0.000009
 20O   1py        0.000168  0.000316  0.000022  0.000294 -0.000087  0.000029
 20O   2pz        0.006452  0.000772  0.000085  0.006935  0.000256 -0.000218
 20O   2px       -0.002404  0.004225  0.000805 -0.002736 -0.002359  0.000180
 20O   2py        0.000245 -0.002631 -0.000325  0.000626  0.000642 -0.000180
 20O   1dz2      -0.000002  0.000394 -0.000005  0.000516 -0.000014 -0.000018
 20O   1dxz       0.000087  0.000027  0.000016 -0.001311 -0.000020  0.000018
 20O   1dyz      -0.000038 -0.000119 -0.000030  0.000365 -0.000021 -0.000009
 20O   1dx2y2     0.000013 -0.000120 -0.000002  0.000759  0.000144 -0.000000
 20O   1dxy      -0.000047  0.000183  0.000014 -0.000649 -0.000102  0.000014
 21O   1s        -0.001187  0.988468  0.000006 -0.000146 -0.000041 -0.000005
 21O   2s         0.001447 -0.044628 -0.000014  0.000073 -0.000572 -0.000086
 21O   3s        -0.007487  0.043614  0.000254  0.007296  0.000677  0.000520
 21O   1pz       -0.000097  0.003045 -0.000063 -0.001069  0.000110  0.000001
 21O   1px       -0.000133  0.000180  0.000000 -0.000368  0.000148 -0.000001
 21O   1py        0.000124 -0.000626  0.000067  0.000317 -0.000076  0.000014
 21O   2pz        0.001229 -0.009707  0.000174 -0.006299 -0.001131 -0.000110
 21O   2px        0.002598 -0.000743 -0.000249  0.002119 -0.000267 -0.000281
 21O   2py       -0.001638  0.001942 -0.000053  0.000421  0.000205  0.000039
 21O   1dz2       0.000024 -0.000280 -0.000050  0.000747  0.000180 -0.000003
 21O   1dxz      -0.000473 -0.000029  0.000017 -0.000106 -0.000017  0.000031
 21O   1dyz       0.000266  0.000114 -0.000007 -0.000235 -0.000044  0.000003
 21O   1dx2y2     0.000008 -0.000000  0.000028  0.000043  0.000158 -0.000004
 21O   1dxy       0.000159  0.000000 -0.000022 -0.000041 -0.000159  0.000008
 22C   1s         0.000006  0.000008  0.000011 -0.000163  0.000153  0.000103
 22C   2s        -0.000420 -0.000282 -0.000125 -0.000436  0.000257  0.000121
 22C   3s        -0.009593 -0.002139 -0.000192 -0.001368  0.001391 -0.000445
 22C   1pz       -0.000016  0.000171  0.000026  0.000104 -0.000116  0.000014
 22C   1px        0.000597  0.000242  0.000071  0.000547 -0.000202 -0.000018
 22C   1py       -0.000268 -0.000140 -0.000027 -0.000300  0.000099  0.000009
 22C   2pz        0.000691  0.000578  0.000176 -0.001224  0.000326 -0.000161
 22C   2px        0.002376  0.000167  0.000024  0.001409 -0.000282  0.000277
 22C   2py       -0.001332 -0.000136 -0.000132 -0.000136  0.000434 -0.000077
 22C   1dz2      -0.000021  0.000041  0.000006  0.000459  0.000004 -0.000002
 22C   1dxz       0.000616 -0.000280 -0.000035  0.000176  0.000054 -0.000005
 22C   1dyz      -0.000336  0.000096  0.000013 -0.000112 -0.000033  0.000003
 22C   1dx2y2     0.000314  0.000022 -0.000005 -0.000295 -0.000004 -0.000011
 22C   1dxy      -0.000487 -0.000104  0.000021  0.000321 -0.000033  0.000000
 23H   1s         0.000977  0.000148  0.000026 -0.000210  0.000015 -0.000023
 23H   2s         0.001159  0.000384  0.000090 -0.000057  0.000059 -0.000071
 23H   1pz        0.000184 -0.000073 -0.000002  0.000047 -0.000010 -0.000013
 23H   1px       -0.000190  0.000063  0.000008 -0.000238 -0.000040 -0.000010
 23H   1py        0.000128 -0.000023  0.000014  0.000040 -0.000006 -0.000007
 24H   1s         0.001004  0.000222  0.000025  0.000250 -0.000157  0.000033
 24H   2s         0.001869  0.000695  0.000005 -0.000147 -0.000483  0.000047
 24H   1pz       -0.000155  0.000003 -0.000019  0.000248  0.000011  0.000014
 24H   1px       -0.000435 -0.000231  0.000010 -0.000072  0.000028 -0.000015
 24H   1py       -0.000054 -0.000062  0.000000  0.000014  0.000043  0.000002
 25H   1s         0.001065  0.000385 -0.000006  0.000453 -0.000061  0.000059
 25H   2s         0.001485  0.000578 -0.000070  0.000283 -0.000210  0.000066
[...]
      5       0.001226  -0.000057   0.000015   0.000068   0.000065   0.070404
      6      -0.002298  -0.000128   0.000078  -0.000485   0.000264  -0.141916
      7       0.002657   0.000008   0.000211   0.000173   0.000276   0.196497
      8      -0.006355   0.000797   0.000773  -0.000336  -0.000766  -0.967154
      9      -0.032560  -0.000140  -0.001848   0.001521   0.000310   0.004733
     10      -0.100137  -0.001009  -0.005674   0.003355   0.000907   0.002733
     11       0.253249   0.002361   0.013998  -0.007549  -0.002294  -0.017084
     12       0.000572  -0.000748   0.000004  -0.000007   0.000036   0.000165
     13      -0.000402   0.000252  -0.000021   0.000176   0.000036  -0.000022
     14      -0.000082  -0.000625  -0.000008  -0.000353  -0.000082  -0.000564
     15      -0.000303   0.000000  -0.000266  -0.000443   0.000040  -0.000352
     16       0.000001   0.000014   0.000005  -0.000197  -0.000035   0.000683
     17      -0.001221  -0.000043   0.000254  -0.000383  -0.000366   0.000017
     18       0.046911   0.001742   0.008362  -0.008607  -0.003601  -0.000536
     19      -0.020768  -0.000726  -0.002616   0.001569   0.000238  -0.000915
     20      -0.063835  -0.002401  -0.011755   0.015258   0.005832   0.000225
     21      -0.002380  -0.000095   0.000066   0.001345   0.000260   0.000097
     22       0.002750   0.000142   0.002450   0.000403  -0.001031  -0.000155
     23      -0.001107  -0.000060  -0.003412  -0.001255   0.002478  -0.000051
     24       0.003621   0.000204  -0.058748  -0.035461   0.029387   0.000023
     25      -0.002465  -0.000120   0.032662   0.020764  -0.018731   0.000099
     26      -0.001033  -0.000076   0.021901   0.011400  -0.006389   0.000249
     27      -0.001169  -0.000064   0.010434   0.001499   0.017099  -0.000187
     28      -0.001551  -0.000026   0.012133  -0.007897   0.027253   0.000165
     29       0.004018   0.000124  -0.036613   0.012660  -0.073613  -0.000142
     30      -0.013909  -0.000017   0.018826  -0.050872  -0.024306   0.000220
     31       0.011568  -0.000081  -0.019952   0.051477   0.022097  -0.000055
     32      -0.003217   0.000120   0.010189  -0.023515  -0.006983  -0.000349
     33      -0.521050  -0.019140  -0.084444   0.100393   0.031879   0.001405
     34       0.251748   0.009163   0.038832  -0.046182  -0.013881  -0.000361
     35       0.722734   0.026554   0.117625  -0.141346  -0.044552  -0.001561
     36      -0.050076  -0.002647   0.662543   0.393930  -0.297137   0.000634
     37       0.027775   0.001466  -0.368025  -0.219539   0.166689  -0.000502
     38       0.018842   0.000994  -0.243653  -0.143257   0.105676  -0.000591
     39       0.006819   0.000349   0.002515  -0.001586  -0.004031   0.000490
     40       0.003342   0.000240   0.003651  -0.000986  -0.003720  -0.000787
     41       0.004585   0.000262   0.004496  -0.001246  -0.004336  -0.000380
     42       0.003507   0.000136  -0.000346  -0.000863  -0.000224   0.000344
     43      -0.028769  -0.001589  -0.030768  -0.010161   0.011640   0.001208
     44       0.012242   0.000674   0.016730   0.005744  -0.007043  -0.000638
     45       0.011266   0.000283  -0.108453   0.031633  -0.193560  -0.000123
     46       0.018076   0.000404  -0.156964   0.054305  -0.285122  -0.000175
     47      -0.047561  -0.001130   0.437459  -0.142772   0.788231  -0.000256
     48       0.156472   0.000215  -0.221521   0.574599   0.238410  -0.001083
     49      -0.149692  -0.000157   0.218897  -0.563690  -0.231203   0.001177
     50       0.065376  -0.000012  -0.098949   0.251393   0.100256  -0.000666
     51      -0.002284   0.000104   0.002939   0.001514  -0.001818   0.002491
     52      -0.000202  -0.000006  -0.000829  -0.000599   0.000415  -0.002081
     53       0.001786  -0.000070  -0.002336  -0.001156   0.001287  -0.001893
     54       0.001748  -0.000127   0.000498   0.002217   0.000644   0.001733
     55       0.000824  -0.000139   0.000571   0.002223   0.000776   0.001822
     56       0.000334  -0.000068   0.000090   0.000644   0.000146   0.000919
     57       0.003775   0.000233  -0.000283   0.001304   0.000754  -0.005153
     58      -0.000871  -0.000048  -0.000003  -0.000279  -0.000050   0.005231
     59       0.012877   0.000707  -0.000512   0.005349   0.002581  -0.012355
     60      -0.000053  -0.000107   0.000039  -0.000039  -0.000034  -0.000222
     61       0.000067   0.000236  -0.000011   0.000004   0.000026   0.000038
     62       0.000051   0.000711   0.000007   0.000035   0.000005   0.000279
     63       0.000033   0.000109   0.000034  -0.000068  -0.000042  -0.000030
     64      -0.000040  -0.000104   0.000038  -0.000152  -0.000038   0.000065
     65       0.000199   0.000286   0.000009   0.000156   0.000034   0.000355
     66      -0.000895   0.029522  -0.000148   0.000390   0.000144   0.000142
     67       0.000773  -0.016962   0.000013   0.000048  -0.000027  -0.000070
     68       0.002969  -0.090195   0.000163  -0.000630  -0.000142  -0.000032
     69       0.013200  -0.409243   0.000933  -0.002981  -0.000861  -0.000500
     70      -0.009293   0.289958  -0.000671   0.002146   0.000604   0.000297
     71      -0.023479   0.729184  -0.001564   0.005399   0.001468   0.001195
     72      -0.005752   0.146558   0.000108  -0.000155  -0.000092  -0.000248
     73      -0.007682   0.189335  -0.000009  -0.000162  -0.000015  -0.000387
     74      -0.004596   0.111522   0.000119  -0.000344  -0.000130  -0.000380
     75       0.002170  -0.080030   0.000338  -0.001059  -0.000373   0.000054
     76       0.008095  -0.282071   0.000743  -0.003129  -0.000633   0.000163
     77      -0.006397   0.224763  -0.000592   0.002442   0.000474  -0.000514


-----------
IR SPECTRUM
-----------

 Mode    freq (cm**-1)   T**2         TX         TY         TZ
-------------------------------------------------------------------
   7:        19.08    3.278062  ( -0.907305  -1.521596  -0.373638)
   8:        75.52    1.014591  ( -0.886675  -0.455936  -0.143250)
   9:       112.13    1.268460  ( -0.102248  -1.064916  -0.352078)
  10:       113.26    0.262303  ( -0.321355  -0.385318   0.102779)
  11:       142.14    0.407054  (  0.583115  -0.139780  -0.217929)
  12:       156.61    1.089250  ( -0.784587  -0.411255  -0.551854)
  13:       176.82    1.723759  (  1.061591   0.542335   0.550142)
  14:       187.93    8.351470  (  1.698445   2.161239  -0.892078)
  15:       214.62    2.936327  ( -0.833715  -1.492798   0.113135)
  16:       240.46    6.601202  (  1.171423   1.995072   1.117434)
  17:       307.02   25.209498  (  3.651697  -2.856636  -1.927236)
  18:       370.18    5.249256  (  0.494473  -2.049394  -0.897072)
  19:       405.16   23.322408  ( -3.624112  -3.174277  -0.334946)
  20:       440.00    7.634674  (  2.587746   0.470644   0.846603)
  21:       486.28    2.560884  ( -0.906154  -1.237836   0.455556)
  22:       538.67    3.102488  ( -1.489888  -0.839096   0.422657)
  23:       705.42   19.338967  (  3.437113   2.740314   0.126113)
  24:       726.29   12.812379  ( -0.876289  -0.080991   3.469573)
  25:       769.62   24.324560  (  4.485927   0.999341   1.789507)
  26:       797.25   12.652629  (  3.162863   1.592166   0.337543)
  27:       814.73   43.165522  ( -4.973532  -4.284463  -0.269971)
  28:       825.85   17.915032  ( -2.918273  -2.776340  -1.300252)
  29:       886.70   36.324895  ( -4.568324  -3.522550  -1.745553)
  30:       896.87   49.088017  (  3.703660   5.894400  -0.791812)
  31:       942.12   43.117574  (  6.395463   1.448462  -0.342906)
  32:       942.29   20.793094  ( -4.048091   1.696606  -1.235953)
  33:       954.57    6.027210  (  0.788700  -0.204356   2.315902)
  34:       985.95    2.430779  ( -0.160558   1.479568   0.464627)
  35:      1003.26   21.743917  ( -0.344936   3.847946  -2.611177)
  36:      1019.86    1.676402  (  1.159780  -0.172977   0.548991)
  37:      1050.65   17.142372  (  3.709653   0.200262  -1.827769)
  38:      1071.41   19.261586  ( -4.057752  -1.340952   0.999041)
  39:      1089.14    5.702168  (  2.348651  -0.035972  -0.429780)
  40:      1102.00    1.369324  (  0.348540   0.938749   0.605470)
  41:      1122.72    3.930434  (  0.143960  -0.512893   1.909620)
  42:      1129.47    8.395138  ( -0.450991   2.833470   0.403973)
  43:      1134.63    9.814358  ( -0.038955   3.052267   0.704631)
  44:      1147.27   17.511166  ( -2.647403  -3.240043   0.067411)
  45:      1166.45    3.859303  (  0.446384  -1.888240  -0.307560)
  46:      1198.90    5.924613  ( -1.866123   0.909469  -1.270851)
  47:      1279.17  219.873005  (-14.449282   2.911991   1.616032)
  48:      1288.22    3.519874  (  1.517947  -0.741978  -0.815585)
  49:      1330.20    3.208759  (  1.199799   0.363606  -1.279465)
  50:      1359.10   82.936105  ( -2.858377   8.191606   2.768281)
  51:      1375.86  315.095486  (-17.412304   2.481094   2.398193)
  52:      1394.28   35.867296  ( -2.777853   0.872321  -5.233535)
  53:      1440.36   19.172114  ( -0.326804  -4.360099  -0.234193)
  54:      1453.12   18.790876  (  0.383566  -3.939539  -1.767424)
  55:      1454.46   11.075361  ( -1.490948   2.676709  -1.299101)
  56:      1459.74    3.992230  ( -0.240250  -1.639159   1.116990)
  57:      1466.32   33.191653  ( -5.451449   0.012496   1.863653)
  58:      1470.52    9.285309  ( -0.220889  -1.274535   2.758999)
  59:      1472.64   67.415045  (  7.900478  -0.004345   2.235504)
  60:      1482.75   22.866055  ( -2.702570   0.869871   3.847791)
  61:      1553.32   31.771046  ( -4.746039   2.551278   1.654432)
  62:      1601.80   90.350999  (  2.051352   8.358424   4.034811)
  63:      1844.92  181.498056  (  2.191551  -1.688206 -13.185034)
  64:      3013.01   13.330448  ( -1.955471  -0.653316  -3.013264)
  65:      3044.52    9.712813  ( -0.336432   3.070658  -0.413140)
  66:      3065.74    8.784378  ( -2.874153   0.699653   0.184676)
  67:      3122.79    2.221039  (  0.803129   0.109612   1.250603)
  68:      3132.48    2.231687  (  0.731702  -0.980415   0.857371)
  69:      3164.75    2.984542  ( -0.573267  -1.621591   0.162325)
  70:      3166.45    1.486268  (  0.295868  -0.078200  -1.180091)
  71:      3189.06    4.562192  (  1.156511   1.753099  -0.388996)
  72:      3198.68    5.063351  ( -1.198870  -0.418699   1.857620)
  73:      3200.98    1.077341  (  0.844596   0.146541  -0.585255)
  74:      3217.92    1.730728  (  1.162542   0.155698   0.595803)
  75:      3225.50    2.653497  (  1.119557  -1.154959  -0.257216)
  76:      3240.39    5.309505  ( -0.817438  -1.222514   1.773911)
  77:      3506.38   98.638228  ( -4.901155  -2.816355  -8.166092)

The first frequency considered to be a vibration is 7
The total number of vibrations considered is 71


--------------------------
THERMOCHEMISTRY AT 298.15K
--------------------------

Temperature         ... 298.15 K
Pressure            ... 1.00 atm
Total Mass          ... 168.22 AMU

Throughout the following assumptions are being made:
  (1) The electronic state is orbitally nondegenerate
  (2) There are no thermally accessible electronically excited states
  (3) Hindered rotations indicated by low frequency modes are not
      treated as such but are treated as vibrations and this may
      cause some error
  (4) All equations used are the standard statistical mechanics
      equations for an ideal gas
  (5) All vibrations are strictly harmonic

freq.      19.08  E(vib)   ...       0.57 
freq.      75.52  E(vib)   ...       0.49 
freq.     112.13  E(vib)   ...       0.45 
freq.     113.26  E(vib)   ...       0.45 
freq.     142.14  E(vib)   ...       0.41 
freq.     156.61  E(vib)   ...       0.40 
freq.     176.82  E(vib)   ...       0.38 
freq.     187.93  E(vib)   ...       0.36 
freq.     214.62  E(vib)   ...       0.34 
freq.     240.46  E(vib)   ...       0.31 
freq.     307.02  E(vib)   ...       0.26 
freq.     370.18  E(vib)   ...       0.21 
freq.     405.16  E(vib)   ...       0.19 
freq.     440.00  E(vib)   ...       0.17 
freq.     486.28  E(vib)   ...       0.15 
freq.     538.67  E(vib)   ...       0.12 
freq.     705.42  E(vib)   ...       0.07 
freq.     726.29  E(vib)   ...       0.06 
freq.     769.62  E(vib)   ...       0.05 
freq.     797.25  E(vib)   ...       0.05 
freq.     814.73  E(vib)   ...       0.05 
freq.     825.85  E(vib)   ...       0.04 
freq.     886.70  E(vib)   ...       0.04 
freq.     896.87  E(vib)   ...       0.03 
freq.     942.12  E(vib)   ...       0.03 
freq.     942.29  E(vib)   ...       0.03 
freq.     954.57  E(vib)   ...       0.03 
freq.     985.95  E(vib)   ...       0.02 
freq.    1003.26  E(vib)   ...       0.02 
freq.    1019.86  E(vib)   ...       0.02 
freq.    1050.65  E(vib)   ...       0.02 
freq.    1071.41  E(vib)   ...       0.02 
freq.    1089.14  E(vib)   ...       0.02 
freq.    1102.00  E(vib)   ...       0.02 
freq.    1122.72  E(vib)   ...       0.01 
freq.    1129.47  E(vib)   ...       0.01 
freq.    1134.63  E(vib)   ...       0.01 
freq.    1147.27  E(vib)   ...       0.01 
freq.    1166.45  E(vib)   ...       0.01 
freq.    1198.90  E(vib)   ...       0.01 
freq.    1279.17  E(vib)   ...       0.01 
freq.    1288.22  E(vib)   ...       0.01 
freq.    1330.20  E(vib)   ...       0.01 
freq.    1359.10  E(vib)   ...       0.01 
freq.    1375.86  E(vib)   ...       0.01 
freq.    1394.28  E(vib)   ...       0.00 
freq.    1440.36  E(vib)   ...       0.00 
freq.    1453.12  E(vib)   ...       0.00 
freq.    1454.46  E(vib)   ...       0.00 
freq.    1459.74  E(vib)   ...       0.00 
freq.    1466.32  E(vib)   ...       0.00 
freq.    1470.52  E(vib)   ...       0.00 
freq.    1472.64  E(vib)   ...       0.00 
freq.    1482.75  E(vib)   ...       0.00 
freq.    1553.32  E(vib)   ...       0.00 
freq.    1601.80  E(vib)   ...       0.00 
freq.    1844.92  E(vib)   ...       0.00 
freq.    3013.01  E(vib)   ...       0.00 
freq.    3044.52  E(vib)   ...       0.00 
freq.    3065.74  E(vib)   ...       0.00 
freq.    3122.79  E(vib)   ...       0.00 
freq.    3132.48  E(vib)   ...       0.00 
freq.    3164.75  E(vib)   ...       0.00 
freq.    3166.45  E(vib)   ...       0.00 
freq.    3189.06  E(vib)   ...       0.00 
freq.    3198.68  E(vib)   ...       0.00 
freq.    3200.98  E(vib)   ...       0.00 
freq.    3217.92  E(vib)   ...       0.00 
freq.    3225.50  E(vib)   ...       0.00 
freq.    3240.39  E(vib)   ...       0.00 
freq.    3506.38  E(vib)   ...       0.00 

------------
INNER ENERGY
------------

The inner energy is: U= E(el) + E(ZPE) + E(vib) + E(rot) + E(trans)
    E(el)   - is the total energy from the electronic structure calculation
              = E(kin-el) + E(nuc-el) + E(el-el) + E(nuc-nuc)
    E(ZPE)  - the the zero temperature vibrational energy from the frequency calculation
    E(vib)  - the the finite temperature correction to E(ZPE) due to population
              of excited vibrational states
    E(rot)  - is the rotational thermal energy
    E(trans)- is the translational thermal energy

Summary of contributions to the inner energy U:
Electronic energy                ...   -555.40850034 Eh
Zero point energy                ...      0.22026406 Eh     138.22 kcal/mol
Thermal vibrational correction   ...      0.00959710 Eh       6.02 kcal/mol
Thermal rotational correction    ...      0.00141627 Eh       0.89 kcal/mol
Thermal translational correction ...      0.00141627 Eh       0.89 kcal/mol
-----------------------------------------------------------------------
Total thermal energy                   -555.17580663 Eh


Summary of corrections to the electronic energy:
(perhaps to be used in another calculation)
Total thermal correction                  0.01242964 Eh       7.80 kcal/mol
Non-thermal (ZPE) correction              0.22026406 Eh     138.22 kcal/mol
-----------------------------------------------------------------------
Total correction                          0.23269371 Eh     146.02 kcal/mol


--------
ENTHALPY
--------

The enthalpy is H = U + kB*T
                kB is Boltzmann's constant
Total free energy                 ...   -555.17580663 Eh 
Thermal Enthalpy correction       ...      0.00094421 Eh       0.59 kcal/mol
-----------------------------------------------------------------------
Total Enthalpy                    ...   -555.17486242 Eh


Vibrational entropy computed according to the QRRHO of S. Grimme
Chem.Eur.J. 2012 18 9955


-------
ENTROPY
-------

The entropy contributions are T*S = T*(S(el)+S(vib)+S(rot)+S(trans)
     S(el)   - electronic entropy
     S(vib)  - vibrational entropy
     S(rot)  - rotational entropy
     S(trans)- translational entropy
The entropies will be listed as mutliplied by the temperature to get
units of energy

Electronic entropy                ...      0.00000000 Eh      0.00 kcal/mol
Vibrational entropy               ...      0.01724612 Eh     10.82 kcal/mol
Rotational entropy                ...      0.01354632 Eh      8.50 kcal/mol
Translational entropy             ...      0.01960781 Eh     12.30 kcal/mol
-----------------------------------------------------------------------
Final entropy term                ...      0.05040025 Eh     31.63 kcal/mol


CAUTION: The rotational entropy is not quite correctly treated here
         because it includes a symmetry number that is not yet correctly
         implemented in ORCA!
For a nonlinear molecule the correct rotational entropy is:
    S(rot) = R*(ln(qrot/sn)+1.5)
    R    = 8.31441 J/mol/K = 1.987191683e-3 kcal/mol/K
    qrot = 1139131.6866061
    sn is the rotational symmetry number. We have assumed 3 here
       if it is different for your molecule then you should correct
       the printed rotational entropy by manually evaluating the equation
       as given above

For convenience we print out the resulting values for sn=1 - 12:
 sn= 1  qrot/sn= 1139131.6866 T*S(rot)=     9.15 kcal/mol T*S(tot)=    32.28 kcal/mol
 sn= 2  qrot/sn=  569565.8433 T*S(rot)=     8.74 kcal/mol T*S(tot)=    31.87 kcal/mol
 sn= 3  qrot/sn=  379710.5622 T*S(rot)=     8.50 kcal/mol T*S(tot)=    31.63 kcal/mol
 sn= 4  qrot/sn=  284782.9217 T*S(rot)=     8.33 kcal/mol T*S(tot)=    31.46 kcal/mol
 sn= 5  qrot/sn=  227826.3373 T*S(rot)=     8.20 kcal/mol T*S(tot)=    31.32 kcal/mol
 sn= 6  qrot/sn=  189855.2811 T*S(rot)=     8.09 kcal/mol T*S(tot)=    31.22 kcal/mol
 sn= 7  qrot/sn=  162733.0981 T*S(rot)=     8.00 kcal/mol T*S(tot)=    31.12 kcal/mol
 sn= 8  qrot/sn=  142391.4608 T*S(rot)=     7.92 kcal/mol T*S(tot)=    31.05 kcal/mol
 sn= 9  qrot/sn=  126570.1874 T*S(rot)=     7.85 kcal/mol T*S(tot)=    30.98 kcal/mol
 sn=10  qrot/sn=  113913.1687 T*S(rot)=     7.79 kcal/mol T*S(tot)=    30.91 kcal/mol
 sn=11  qrot/sn=  103557.4261 T*S(rot)=     7.73 kcal/mol T*S(tot)=    30.86 kcal/mol
 sn=12  qrot/sn=   94927.6406 T*S(rot)=     7.68 kcal/mol T*S(tot)=    30.81 kcal/mol


-------------------
GIBBS FREE ENTHALPY
-------------------

The Gibbs free enthalpy is G = H - T*S

Total enthalpy                    ...   -555.17486242 Eh 
Total entropy correction          ...     -0.05040025 Eh    -31.63 kcal/mol
-----------------------------------------------------------------------
Final Gibbs free enthalpy         ...   -555.22526268 Eh

For completeness - the Gibbs free enthalpy minus the electronic energy
G-E(el)                           ...      0.18323766 Eh    114.98 kcal/mol


Total Time for Numerical Frequencies  :      6231.614 sec

Timings for individual modules:

Sum of individual times         ...      306.809 sec (=   5.113 min)
GTO integral calculation        ...        3.010 sec (=   0.050 min)   1.0 %
SCF iterations                  ...      221.604 sec (=   3.693 min)  72.2 %
SCF Gradient evaluation         ...       80.498 sec (=   1.342 min)  26.2 %
Geometry relaxation             ...        1.697 sec (=   0.028 min)   0.6 %
                             ****ORCA TERMINATED NORMALLY****
TOTAL RUN TIME: 0 days 1 hours 48 minutes 36 seconds 919 msec
